/*--------------------------------*- C++ -*----------------------------------*\
| =========                 |                                                 |
| \\      /  F ield         | OpenFOAM: The Open Source CFD Toolbox           |
|  \\    /   O peration     | Version:  5.0                                   |
|   \\  /    A nd           | Web:      www.OpenFOAM.org                      |
|    \\/     M anipulation  |                                                 |
\*---------------------------------------------------------------------------*/
FoamFile
{
    version     2.0;
    format      ascii;
    class       volScalarField;
    location    "3.6";
    object      alpha.water;
}
// * * * * * * * * * * * * * * * * * * * * * * * * * * * * * * * * * * * * * //

dimensions      [0 0 0 0 0 0 0];

internalField   nonuniform List<scalar> 
8570
(
1.04915
1.02184
1.00645
0.995378
1.02358
1.01229
0.080694
-5.51381e-20
-4.71933e-22
9.33983e-18
1.78505e-18
3.9353e-20
5.98605e-23
5.8264e-27
8.34648e-31
3.26003e-34
1.35492e-37
5.92138e-41
2.58894e-44
1.03594e-47
4.9902e-51
2.14411e-54
9.28319e-58
3.46386e-61
2.14911e-64
3.55166e-67
5.27125e-71
1.53696e-74
6.54877e-77
1.22071e-80
2.1984e-83
2.66931e-87
3.41021e-90
1.3436e-92
4.59622e-96
2.34468e-99
1.17346e-102
4.87518e-105
8.2557e-109
6.94319e-113
8.72837e-116
2.33313e-118
3.17885e-121
8.25812e-124
1.46397e-127
1.465e-130
1.74567e-134
2.73332e-138
8.19241e-140
4.49621e-143
1.02957
1.04317
0.88684
1.0875
1.03141
1.01565
0.394289
-5.29593e-26
4.99066e-15
7.7574e-17
1.43323e-19
5.94694e-21
2.74592e-23
5.39153e-27
3.69519e-31
1.23853e-34
5.16128e-38
2.18018e-41
9.25035e-45
3.79335e-48
1.5976e-51
6.75032e-55
3.08257e-58
1.391e-61
5.20771e-65
2.50519e-68
1.91915e-71
4.5834e-75
2.63537e-78
1.54079e-81
6.96299e-85
1.64629e-87
1.67829e-91
5.8424e-94
1.85739e-97
2.09944e-100
6.19433e-104
5.34415e-108
2.21804e-109
1.66494e-112
2.32959e-116
3.4552e-119
4.09108e-123
6.16073e-127
9.40693e-130
7.6111e-133
1.20328e-136
3.39664e-140
1.26694e-143
2.08084e-144
1.06337
0.955481
1.03951
1.06433
1
0.999084
1
-2.98741e-16
-4.40265e-18
-1.00973e-31
1.93424e-17
4.59625e-19
2.56233e-22
1.74011e-26
4.36537e-30
1.60791e-33
6.82918e-37
3.03111e-40
1.50144e-43
5.61102e-47
2.6989e-50
1.08799e-53
7.05425e-57
2.35427e-60
1.12939e-63
8.39776e-67
4.79194e-70
7.03226e-74
3.00794e-76
4.69674e-79
5.01316e-83
6.32614e-87
4.14743e-88
4.32227e-91
3.61121e-95
1.57455e-98
6.27455e-102
6.84436e-106
1.12567e-107
7.18401e-111
2.0481e-114
8.27279e-118
1.51834e-120
2.71551e-124
5.59891e-128
9.73531e-132
1.3483e-133
1.72062e-136
9.13076e-141
1.20404e-144
0.958345
0.974303
0.966686
1.04603
1.04745
1.00548
1.00007
-1.3391e-15
-1.0926e-18
-5.99464e-22
4.49312e-18
5.66444e-19
5.70525e-21
2.56668e-24
1.39304e-28
3.69016e-32
1.51743e-35
7.03659e-39
2.72762e-42
1.13776e-45
5.09542e-49
2.03396e-52
1.60477e-55
6.43925e-59
3.54618e-62
1.23016e-65
3.1488e-69
1.7543e-71
4.55794e-75
4.44322e-79
3.54081e-81
3.03288e-84
4.12986e-88
1.0536e-91
5.89998e-94
1.11285e-97
5.40206e-101
6.35841e-104
2.62702e-106
1.50304e-109
1.91995e-113
6.0843e-116
2.10828e-119
1.90473e-122
2.65085e-125
1.09564e-128
5.93023e-133
5.50422e-136
4.93043e-139
1.49913e-141
1.02927
1.01865
0.957005
1.07096
0.997024
1.00368
1.00166
0.0700144
-3.04772e-17
-1.50936e-20
2.20835e-17
3.59042e-18
5.66577e-20
4.85899e-23
3.1222e-27
6.44691e-31
2.48113e-34
1.05723e-37
4.3969e-41
2.25243e-44
7.92298e-48
5.18823e-51
1.49516e-54
9.15335e-58
3.127e-61
3.21112e-64
1.02135e-67
1.03263e-70
3.29384e-73
1.07545e-76
1.00397e-79
1.70898e-83
4.97502e-86
5.98656e-90
7.03755e-94
9.43819e-97
6.14401e-99
2.21323e-102
1.27855e-106
4.54717e-109
1.23124e-112
1.28909e-116
4.06601e-118
4.39742e-121
2.47379e-124
3.22911e-128
3.84802e-130
1.80737e-133
1.55855e-136
1.99252e-140
0.956661
1.17585
0.945695
1.05726
1
1
1.00165
0.154253
-6.97989e-18
-7.36302e-20
1.72969e-17
2.8249e-18
4.5149e-20
4.0003e-23
2.58817e-27
5.05281e-31
2.02625e-34
1.17169e-37
4.04274e-41
2.43256e-44
7.6239e-48
3.13822e-51
1.27388e-54
1.67978e-57
4.05084e-61
4.08237e-63
1.26744e-66
9.80118e-71
4.19407e-73
1.37749e-75
1.02223e-78
1.5687e-82
2.08449e-86
1.46177e-89
3.31775e-92
3.33177e-96
5.30501e-99
7.93084e-102
3.8945e-106
1.73833e-108
2.67444e-111
9.33781e-114
2.50678e-117
3.90543e-121
1.07059e-124
2.2635e-127
1.82623e-131
3.87276e-135
1.41926e-138
3.67318e-142
1.03574
0.999998
0.879045
1.0262
1.03088
1.03063
1.00363
0.0183123
-5.42721e-20
-1.73561e-21
4.26204e-18
5.30748e-19
5.21742e-21
2.25493e-24
1.22795e-28
3.2911e-32
1.35226e-35
5.77282e-39
2.50881e-42
1.04502e-45
7.2194e-49
1.96573e-52
9.91827e-56
3.70388e-59
3.85084e-62
7.20871e-66
2.59967e-69
3.54109e-72
1.54112e-74
2.58184e-78
2.96428e-82
5.86761e-85
5.45315e-89
9.43566e-92
5.48115e-95
1.15863e-97
2.26406e-101
1.07667e-103
8.81754e-107
1.02713e-110
6.15264e-114
1.38435e-116
4.89923e-120
2.86706e-123
3.93067e-126
4.37191e-130
6.41723e-132
1.84247e-135
8.81597e-140
2.48682e-141
1.0236
1.03627
0.977307
1.00421
0.960724
1.03177
1.00091
-3.2721e-16
-3.28827e-18
-2.53785e-23
1.85754e-17
5.2311e-19
3.422e-22
1.91736e-26
4.67249e-30
1.73425e-33
7.41084e-37
3.18418e-40
1.54794e-43
7.99537e-47
2.73507e-50
1.653e-53
8.38576e-57
2.11016e-60
8.50641e-64
3.21532e-66
2.21001e-69
2.70859e-73
4.98024e-77
7.38653e-79
1.1394e-82
1.4871e-85
1.46802e-88
2.71301e-92
9.49156e-96
3.78787e-98
3.15546e-102
9.26077e-105
8.02818e-108
2.81004e-110
2.42743e-114
1.45022e-117
1.3653e-120
7.85774e-124
1.14064e-127
1.22398e-131
4.16789e-135
1.62368e-138
6.38041e-142
5.44569e-145
1.00269
1.01338
1.0002
1.00249
1.00139
0.962241
1
-7.84471e-17
-6.68821e-18
1.28394e-16
1.36911e-18
5.49022e-21
2.96442e-23
1.18072e-26
8.27166e-31
2.43348e-34
1.01028e-37
4.26395e-41
1.79894e-44
7.55837e-48
3.16208e-51
1.32748e-54
5.54113e-58
2.31627e-61
1.22037e-64
4.10574e-68
1.6732e-71
6.98859e-75
3.04186e-78
1.28147e-81
4.14753e-84
7.93253e-88
1.58998e-91
5.1601e-95
2.94168e-97
9.41901e-101
4.75201e-104
5.13763e-108
1.46837e-111
1.07455e-113
1.90754e-116
3.9174e-119
8.22981e-123
9.80011e-127
3.02281e-129
4.23696e-133
1.8743e-135
2.37137e-138
3.60678e-141
5.73569e-145
1.02297
1.00804
1.00796
0.982476
1.04067
1.01722
0.387241
-7.95942e-18
-1.77797e-20
7.98816e-18
1.7274e-18
4.48141e-20
9.48161e-23
1.30523e-26
1.57463e-30
5.77193e-34
2.42397e-37
1.0305e-40
4.39223e-44
1.96728e-47
7.94061e-51
3.35623e-54
1.4046e-57
5.85092e-61
2.56667e-64
1.0962e-67
1.20929e-70
2.50144e-74
7.45918e-77
2.48757e-80
2.25369e-83
1.87761e-86
1.03835e-89
6.67251e-93
6.8406e-97
8.76516e-100
1.32453e-102
2.38278e-106
1.89123e-108
4.86593e-112
3.44306e-116
1.13162e-119
1.8445e-121
9.14051e-125
2.0722e-128
5.00475e-131
6.97698e-135
1.3633e-137
1.3775e-141
1.16493e-144
1.03703
1.02531
0.999304
1.03509
1.22151
1.09845
0.0900507
3.81302e-14
8.16932e-17
1.93339e-17
4.66485e-18
2.57553e-19
2.29827e-21
2.00425e-24
3.21351e-28
1.32102e-31
9.8696e-35
7.33717e-38
5.28643e-41
3.78601e-44
2.71098e-47
1.93741e-50
1.38061e-53
9.819e-57
6.96626e-60
4.92928e-63
3.48227e-66
2.4543e-69
1.72479e-72
1.2095e-75
8.45853e-79
5.89941e-82
4.10833e-85
2.85485e-88
1.98031e-91
1.37071e-94
9.45938e-98
6.50881e-101
4.47127e-104
3.06716e-107
2.09915e-110
1.43371e-113
9.76834e-117
6.63909e-120
4.5038e-123
3.04707e-126
2.05668e-129
1.38666e-132
9.32638e-136
3.70629e-139
1.05899
1.04708
1.00349
1.07419
0.961736
1.01258
0.396014
7.20254e-12
1.13893e-13
5.72539e-15
1.15148e-17
5.01069e-20
2.03493e-22
1.11229e-25
1.90659e-29
1.05788e-32
7.99968e-36
5.82112e-39
4.16157e-42
2.96645e-45
2.11436e-48
1.50298e-51
1.06845e-54
7.56102e-58
5.33571e-61
3.7596e-64
2.64656e-67
1.85642e-70
1.29855e-73
9.06836e-77
6.33858e-80
4.40944e-83
3.05719e-86
2.11896e-89
1.4639e-92
1.01004e-95
6.95764e-99
4.77274e-102
3.27179e-105
2.23639e-108
1.52628e-111
1.03851e-114
7.05949e-118
4.79983e-121
3.24218e-124
2.18952e-127
1.47685e-130
9.92955e-134
6.66445e-137
2.65147e-140
1.02909
1.03611
1.07895
1.05625
1.01637
0.999868
1
1.72121e-10
3.37542e-15
3.17906e-16
3.14018e-16
2.12193e-17
7.52955e-20
1.32967e-23
2.02359e-27
1.34554e-30
9.89953e-34
7.00424e-37
4.91614e-40
3.44616e-43
2.41264e-46
1.68605e-49
1.17561e-52
8.18273e-56
5.67954e-59
3.93447e-62
2.72179e-65
1.87774e-68
1.29276e-71
8.89665e-75
6.11043e-78
4.18893e-81
2.86792e-84
1.95815e-87
1.33225e-90
9.05788e-94
6.148e-97
4.16317e-100
2.81463e-103
1.89807e-106
1.27703e-109
8.57791e-113
5.75325e-116
3.85227e-119
2.57562e-122
1.71877e-125
1.14421e-128
7.60063e-132
5.0375e-135
1.97811e-138
1.04475
0.999735
1.00311
1.02628
0.95158
1.00412
1.00065
5.47826e-07
1.40719e-14
4.81222e-17
3.41103e-17
5.92747e-18
1.56873e-19
3.53872e-22
6.6e-26
1.40172e-29
9.69626e-33
7.1486e-36
5.08058e-39
3.58632e-42
2.52989e-45
1.78075e-48
1.24988e-51
8.76849e-55
6.12842e-58
4.27628e-61
2.97939e-64
2.07226e-67
1.44056e-70
9.9566e-74
6.87651e-77
4.74158e-80
3.25995e-83
2.23775e-86
1.53411e-89
1.04885e-92
7.15931e-96
4.87658e-99
3.31306e-102
2.24649e-105
1.52061e-108
1.03136e-111
6.949e-115
4.68536e-118
3.13388e-121
2.10021e-124
1.4043e-127
9.37568e-131
6.24499e-134
2.46322e-137
1.02873
0.970972
0.966794
1.1066
0.949407
1.00455
1.0017
0.0771895
1.54697e-13
5.12018e-16
2.9327e-16
7.18351e-17
3.27254e-18
1.4055e-20
4.09952e-24
5.9176e-28
3.62594e-31
2.69611e-34
1.92032e-37
1.35162e-40
9.50972e-44
6.68055e-47
4.68006e-50
3.27433e-53
2.28536e-56
1.59123e-59
1.1065e-62
7.67729e-66
5.31265e-69
3.6695e-72
2.5296e-75
1.73954e-78
1.19456e-81
8.18164e-85
5.59153e-88
3.81627e-91
2.59859e-94
1.76486e-97
1.19674e-100
8.10142e-104
5.47405e-107
3.69342e-110
2.48566e-113
1.6687e-116
1.11839e-119
7.48169e-123
4.9933e-126
3.32752e-129
2.21292e-132
8.70906e-136
1.1223
0.997381
1.00575
1.0263
0.893231
0.998329
1.0025
0.163262
1.65667e-13
7.41658e-16
5.24574e-16
1.39921e-16
6.98674e-18
3.19487e-20
9.51922e-24
1.30734e-27
7.92039e-31
5.88842e-34
4.19074e-37
2.94594e-40
2.06903e-43
1.45139e-46
1.01576e-49
7.09491e-53
4.94423e-56
3.4368e-59
2.38731e-62
1.65462e-65
1.14395e-68
7.89483e-72
5.43215e-75
3.72838e-78
2.55767e-81
1.75093e-84
1.19528e-87
8.14698e-91
5.5408e-94
3.76039e-97
2.54855e-100
1.72351e-103
1.16319e-106
7.83792e-110
5.2688e-113
3.53236e-116
2.36448e-119
1.5793e-122
1.0524e-125
7.00703e-129
4.65885e-132
1.83359e-135
1.01694
0.724507
0.934063
0.99913
1.00849
1.03058
1.00437
0.0258704
1.76043e-14
3.78575e-17
2.4711e-17
4.04491e-18
1.00602e-19
2.22322e-22
4.3663e-26
9.63654e-30
6.53429e-33
4.7937e-36
3.38473e-39
2.38578e-42
1.68877e-45
1.19405e-48
8.32839e-52
5.86688e-55
4.1333e-58
2.85495e-61
1.98669e-64
1.38288e-67
9.60989e-71
6.70299e-74
4.60495e-77
3.1745e-80
2.18847e-83
1.50424e-86
1.04019e-89
7.07455e-93
4.82568e-96
3.30567e-99
2.25524e-102
1.52053e-105
1.02933e-108
6.96677e-112
4.699e-115
3.17054e-118
2.12554e-121
1.42455e-124
9.65003e-128
6.38018e-131
4.25661e-134
1.80413e-137
1.04644
1.02003
1.00352
1
0.994589
1.02745
1.00114
2.14084e-08
7.93478e-15
3.87095e-16
3.80224e-16
2.87866e-17
1.22813e-19
2.54423e-23
3.46354e-27
2.22026e-30
1.63843e-33
1.16079e-36
8.1461e-40
5.71129e-43
3.9996e-46
2.79465e-49
1.94816e-52
1.35599e-55
9.41906e-59
6.52672e-62
4.51428e-65
3.11528e-68
2.14493e-71
1.47552e-74
1.01379e-77
6.94915e-81
4.75395e-84
3.24366e-87
2.2082e-90
1.50162e-93
1.01892e-96
6.89811e-100
4.66472e-103
3.14708e-106
2.11779e-109
1.42292e-112
9.54234e-116
6.38518e-119
4.2663e-122
2.84454e-125
1.89114e-128
1.25572e-131
8.3307e-135
3.27385e-138
1.06916
1.04982
0.955201
0.997764
1.00335
0.975925
1
1.19567e-11
6.02923e-15
6.7262e-15
1.30923e-16
5.64196e-20
4.45009e-23
1.57712e-26
5.31309e-30
3.48103e-33
2.60357e-36
1.87107e-39
1.33013e-42
9.5119e-46
6.81485e-49
4.8839e-52
3.49651e-55
2.48704e-58
1.81102e-61
1.27372e-64
8.92055e-68
6.3078e-71
4.47807e-74
3.13182e-77
2.23159e-80
1.54344e-83
1.08755e-86
7.5061e-90
5.21594e-93
3.62559e-96
2.51213e-99
1.73398e-102
1.19435e-105
8.22884e-109
5.64481e-112
3.86954e-115
2.64917e-118
1.80138e-121
1.22875e-124
8.40612e-128
5.65669e-131
3.81968e-134
2.58291e-137
1.03311e-140
1.02596
1.01628
1.04113
1.0151
1.13515
1.01467
0.39426
4.35672e-13
4.84402e-16
3.05115e-18
2.51853e-18
1.11405e-19
7.99829e-22
6.64228e-25
1.15953e-28
5.04615e-32
3.79015e-35
2.83213e-38
2.05152e-41
1.47699e-44
1.06252e-47
7.62571e-51
5.45741e-54
3.8988e-57
2.77805e-60
1.97388e-63
1.39985e-66
9.90614e-70
6.99331e-73
4.92475e-76
3.45881e-79
2.42245e-82
1.69216e-85
1.17983e-88
8.20667e-92
5.69893e-95
3.94703e-98
2.72604e-101
1.8785e-104
1.29238e-107
8.87045e-111
6.07521e-114
4.15156e-117
2.82994e-120
1.92509e-123
1.3063e-126
8.84461e-130
5.98142e-133
4.03319e-136
1.60604e-139
1.07118
1.02729
0.989573
0.933562
1.15736
0.999928
0.0893198
-2.58611e-20
-3.05654e-22
4.50939e-18
8.73422e-19
2.00065e-20
3.51322e-23
4.02205e-27
5.38636e-31
2.12921e-34
8.54088e-38
3.67212e-41
1.69791e-44
1.05203e-47
3.40698e-51
1.52468e-54
7.64834e-58
2.38269e-61
1.74702e-64
4.03205e-67
4.82806e-71
2.02787e-74
1.80895e-77
5.98904e-81
5.58093e-83
2.29212e-86
3.78927e-90
1.03961e-92
4.19815e-96
1.66471e-99
1.49261e-102
1.33248e-105
9.62118e-110
1.56824e-111
7.87396e-115
5.67303e-119
2.62337e-121
3.79097e-125
1.70837e-128
1.02984e-130
2.13679e-134
2.14028e-137
2.92502e-140
4.9971e-143
1.07749
1.03341
1.15227
0.978718
1.01072
0.998793
0.395328
3.16659e-12
4.98266e-15
7.91436e-17
1.60443e-19
7.01331e-21
3.3561e-23
6.74516e-27
4.53026e-31
1.50949e-34
6.28582e-38
2.65023e-41
1.11793e-44
4.61857e-48
1.97883e-51
8.17e-55
3.94751e-58
1.45791e-61
6.3282e-65
2.55868e-68
1.84297e-71
5.03607e-75
1.09825e-77
2.67034e-81
2.49206e-84
3.0398e-87
2.82839e-90
4.84079e-94
3.64183e-97
2.83575e-100
2.95984e-104
8.47989e-108
6.23311e-109
8.89395e-112
8.3608e-116
1.34408e-119
8.95858e-123
5.2908e-125
1.34643e-128
1.58683e-132
3.51212e-135
3.47335e-139
7.67176e-143
2.92539e-145
1.0142
1.01038
1.02368
1.0319
0.999468
1.00732
1.00008
7.95991e-11
-4.39102e-18
-8.44905e-37
1.92891e-17
4.61403e-19
2.63249e-22
1.95699e-26
4.91643e-30
1.77766e-33
7.51195e-37
3.53971e-40
1.63405e-43
6.07102e-47
3.2097e-50
1.15476e-53
7.13095e-57
4.37812e-60
2.47637e-63
6.64663e-67
8.48123e-70
1.05135e-73
4.2642e-77
4.13912e-79
7.83194e-83
6.05189e-87
3.47073e-90
4.57166e-92
1.41742e-95
1.62392e-98
7.92836e-102
2.93021e-105
2.27172e-108
1.66023e-111
3.93955e-114
3.44656e-118
2.91097e-121
5.48302e-124
1.1597e-127
9.73087e-132
2.2857e-133
1.97476e-136
4.21573e-140
1.07404e-142
1.03044
1.0381
0.996003
1.03781
1.048
1.00171
1.00057
4.34386e-07
-1.33806e-18
-5.94407e-22
4.64572e-18
5.85665e-19
5.89961e-21
2.6525e-24
1.43799e-28
3.80724e-32
1.56583e-35
6.75061e-39
2.79931e-42
1.18558e-45
5.08368e-49
2.05466e-52
1.10383e-55
6.45183e-59
2.2387e-62
1.14658e-65
2.97153e-69
3.05116e-71
1.75938e-74
1.04295e-78
3.50043e-81
2.81798e-84
3.17627e-88
6.84285e-92
1.43129e-94
2.86998e-98
5.14059e-101
5.66615e-104
3.35639e-108
6.7335e-110
3.14282e-113
6.24775e-116
5.32647e-119
3.81149e-122
2.4478e-125
1.03198e-128
6.78761e-132
3.76683e-136
8.71373e-140
3.4198e-143
1.05548
1.02191
0.786521
1.08816
0.966073
1.0014
1.00165
0.0768117
-3.05107e-17
-1.48424e-20
2.27748e-17
3.71935e-18
5.9008e-20
5.06859e-23
3.25376e-27
6.46738e-31
2.56785e-34
1.08638e-37
5.05836e-41
1.98397e-44
7.97752e-48
3.53197e-51
1.61937e-54
9.84864e-58
4.40751e-61
8.33404e-64
9.729e-68
2.28952e-71
1.4741e-74
7.69611e-77
6.15702e-80
3.36167e-84
3.93274e-86
1.18008e-89
1.63023e-92
1.85925e-96
7.81433e-99
1.92433e-102
8.05417e-105
3.21704e-108
3.72307e-112
2.23226e-114
8.50893e-118
1.19621e-121
1.88308e-124
2.64677e-128
5.77176e-130
2.55742e-133
1.00596e-136
2.2138e-139
0.964334
0.718242
0.695998
0.975779
0.99185
0.987632
1.00221
0.165155
-6.94169e-18
-7.41437e-20
1.77192e-17
2.90274e-18
4.64341e-20
4.1148e-23
2.6574e-27
5.21285e-31
2.086e-34
9.05636e-38
3.89483e-41
5.2786e-44
9.16606e-48
7.91446e-51
2.44457e-54
7.6494e-58
7.37402e-61
1.2912e-64
8.87834e-68
2.12105e-71
7.66117e-75
7.26911e-76
7.54253e-79
3.97059e-82
3.44793e-86
2.98412e-89
4.02149e-93
7.78026e-96
4.90786e-99
8.42853e-102
5.19382e-106
3.72876e-108
2.32147e-111
2.95493e-115
1.43997e-117
1.1709e-120
3.50227e-124
1.66495e-128
5.98537e-132
2.76991e-133
1.26255e-136
3.77918e-141
1.01216
1.01775
1.01646
1.00778
0.961692
1.03448
1.00395
0.0251546
-5.26555e-20
-1.73448e-21
4.14007e-18
5.15289e-19
5.05946e-21
2.18503e-24
1.19116e-28
3.1947e-32
1.31246e-35
5.7379e-39
2.41938e-42
1.00297e-45
6.87e-49
2.02717e-52
8.44374e-56
4.55423e-59
1.96221e-62
1.97024e-65
3.80341e-69
1.48164e-72
1.29007e-74
4.60085e-78
3.00055e-82
3.0906e-85
7.31947e-89
1.44237e-91
3.24737e-94
6.89616e-98
1.07117e-101
8.87276e-104
1.62018e-107
3.31314e-111
8.1238e-114
1.41796e-117
7.38489e-120
2.61335e-123
1.60207e-126
9.16988e-131
2.09594e-134
8.1496e-138
4.83717e-141
4.73694e-141
1.06927
1.02583
0.989769
0.912217
1.02775
1.02359
1.0009
1.31627e-08
-3.40876e-18
-2.66341e-23
1.86405e-17
5.3311e-19
3.51925e-22
1.92224e-26
4.69566e-30
1.73267e-33
7.33154e-37
3.15924e-40
1.66736e-43
7.28162e-47
2.69298e-50
1.64458e-53
1.02663e-56
2.11522e-60
3.10114e-63
5.39489e-67
1.5843e-69
2.02195e-72
1.3371e-76
7.06225e-80
1.55853e-83
5.33278e-86
1.00374e-88
3.92964e-92
7.51088e-96
1.45585e-98
1.65649e-101
2.63929e-105
6.59139e-108
5.40195e-111
1.54524e-114
1.22823e-116
3.88995e-120
3.83853e-124
1.38312e-127
2.07079e-131
7.25874e-135
2.83279e-138
1.11409e-141
6.75214e-145
1.0599
1.10144
0.826964
0.995752
1.01064
0.980294
1
5.01129e-12
-7.59396e-18
1.38452e-16
1.47909e-18
5.17799e-21
2.70767e-23
1.06761e-26
7.59083e-31
2.24335e-34
9.31642e-38
3.92785e-41
1.6566e-44
6.97695e-48
2.91652e-51
1.22505e-54
5.10975e-58
2.13945e-61
8.9244e-65
4.32376e-68
1.62208e-71
6.4443e-75
2.62255e-78
1.23232e-81
2.73895e-84
5.11041e-88
6.5834e-91
4.81228e-94
3.13697e-97
9.73716e-101
2.66465e-104
3.30454e-107
3.51641e-111
1.64981e-113
2.89477e-117
4.17294e-121
4.12549e-123
5.91676e-126
1.5492e-129
3.32618e-133
6.9673e-136
6.7181e-139
3.98881e-141
1.16612e-144
1.06929
1.0271
1.05891
1.01429
1.00195
1.07841
0.393763
-7.51039e-18
-1.56056e-20
5.86976e-18
1.26161e-18
3.16639e-20
6.67566e-23
9.36193e-27
1.13613e-30
4.15896e-34
1.75032e-37
7.53582e-41
3.18387e-44
1.34494e-47
5.73705e-51
2.48813e-54
1.01854e-57
4.33414e-61
2.12795e-64
8.73057e-68
4.00816e-71
1.52928e-74
2.79596e-77
1.52946e-80
1.67959e-84
2.16292e-86
8.93969e-90
6.12478e-94
3.27457e-97
1.12851e-99
6.73403e-103
8.84666e-107
1.92657e-108
1.07642e-111
2.89837e-115
7.94185e-118
2.31505e-121
3.47738e-125
6.58063e-128
6.61144e-131
3.0614e-134
2.30951e-137
1.81892e-141
5.37e-145
0.782015
1.01967
0.919041
1.08115
0.779247
1.02481
0.920006
1.00025
1.01082
1.00041
1.01637
1.00017
1.00734
1.00068
1.00075
1.00119
1.00138
0.998336
1.0012
0.999939
1.00222
1.00004
1.00331
1.00177
1.00528
1.00029
1.00006
1.00147
1.00385
1
1.00322
1.00504
1.00376
1
1.00269
1.00284
1.0192
1.00519
1
1.00251
1.02041
1.00495
1.00508
1.01043
1.00334
1.03025
1.00603
1.02043
1.00313
1.00382
1
1.00095
1.0288
1.00332
1
1.00084
1.00013
0.999432
1
0.972102
1.0004
1
1
1
1.01128
0.83695
1.02049
0.998203
1
0.834349
0.778954
1.04039
0.918468
1.00497
0.779376
1.01214
0.918493
1.00022
1.00393
1.00095
1.01393
1.00012
1.00138
1.00114
1.00177
0.999911
1.00241
1.00923
1.00142
0.998333
1.0022
1.00062
1.00124
1.00169
1.00163
1.00036
1.0018
1.00139
1.00437
1
1.00322
1.00266
1.00383
0.985841
1.0023
1.00278
1.01936
1.00546
0.992566
1.00221
1.02038
1.00515
1.00657
1.01832
1.00365
1.03221
1.00599
1.02133
1.00325
1.00365
0.99943
1.00101
1.0254
1.00377
0.99352
1.00091
1.00059
0.997671
1.00019
0.989157
1.00045
0.9862
1
0.997816
0.990517
0.832793
1.07705
0.997178
1.00267
0.835464
0.779525
1.0031
0.91919
0.999807
0.782281
1.00136
0.920446
1.0002
1.01062
1.00141
0.977846
1.00019
1.00862
1.00138
1.00167
0.999249
1.00259
1.0125
1.00108
0.999908
1.00146
1.00057
1.00168
1.00168
1.00001
1.00009
0.996918
1.00172
1.00426
0.982955
1.00294
1.00002
1.00381
1
1.0024
1.00263
1.01973
1.00522
0.98254
1.00224
1.02014
1.00521
1.0061
1.02349
1.00367
1.03494
1.00565
1.02472
1.00328
1.00392
0.9966
1.00114
1.02128
1.00402
0.997659
1.00106
1.00061
0.98245
1.0002
0.981019
1.00023
1.00579
1
0.997913
1.00257
0.834327
1.10048
1
1.00186
0.834513
1.01197
1.02604
1.04109
1.17408
1.08512
0.969119
1.08059
1.0051
1.00423
1.00127
1.0225
1.00376
1.00472
1.0046
-4.35993e-20
0.200007
-6.6823e-20
0.0892358
1.49622e-11
0.202201
1.49622e-11
1.04984
1.06431
0.994279
0.985539
0.999881
1.02005
0.963745
1.00662
1.01384
1.00105
1.0188
1.0139
1.00294
1.0067
-1.70287e-22
0.970957
-5.16711e-17
0.396054
2.09132e-09
0.96702
3.3228e-10
0.974126
0.982803
0.995826
1.01432
0.992376
0.941188
0.984029
1
1.00273
0.995947
1.00104
1.0027
0.999718
1.00116
-2.17202e-15
1.00034
0.0223723
1
7.974e-08
1.00094
0.0290406
1.0023
0.993128
1.00927
0.94819
0.994488
1.00948
0.998189
0.973184
1.00173
1.00178
1.00614
1.00164
0.997725
0.968735
0.147954
1.00186
0.664367
1.0006
0.155052
1.00161
0.66493
0.99125
1.0016
0.989614
0.937043
1.00559
0.995352
0.957614
1.00428
1.00454
1.00432
1.00368
1.00446
1.00383
1.00454
0.777135
1.00163
0.883381
1.00191
0.777058
1.00206
0.878615
0.966461
1.01448
1.0297
0.894051
0.869976
1.01677
1.03289
0.991848
0.999803
0.965552
1
1
0.981138
0.996771
0.888517
1.00248
0.763618
1.00255
0.882973
1.00299
0.761965
0.995187
0.948972
0.985307
1.02006
0.998456
1.00459
1.00447
1.01084
1.02359
1.02613
1.03072
1.02361
1.02601
1.01002
0.632974
1.00177
0.144238
1.00421
0.634221
1.00166
0.150564
1.02049
1
0.95528
0.958202
1.02454
0.999852
0.898005
1.02352
1.02464
1.01936
1.02914
1.02366
1.00289
1.02667
0.0265708
1.00005
-1.9401e-15
1.00139
0.0328071
1.00005
2.02166e-07
0.907752
1.01546
0.999976
1.004
0.86979
1.00684
0.978452
0.980193
1.00001
0.963381
0.962837
1
0.982019
0.98176
-2.18169e-17
0.564053
-2.99058e-15
1
3.88751e-09
0.565848
4.0755e-08
0.941534
1
0.95317
1.12915
0.606488
1.35396
0.965417
1.00417
1.01037
1.01318
1.02895
1.01037
1.01577
1.00486
-2.52946e-16
0.0946009
-1.6627e-16
0.393477
1.74973e-10
0.104677
1.74976e-10
1.02763
1.03592
1.11942
1.21559
0.926648
1.12349
1
1.01132
1.00395
1.11506
1.161
1.00911
1.08945
1.00394
5.46299e-11
0.203652
5.46302e-11
0.0898282
5.46301e-11
0.204417
5.46302e-11
0.978194
1.01224
0.974703
0.988386
1.00224
0.990929
0.944325
1.00537
1.01569
0.968104
1.00946
1.0056
1.01602
0.999083
3.76364e-09
0.966198
6.88699e-10
0.395632
3.97207e-09
0.964803
6.44212e-10
1
0.98302
0.98497
0.999233
1.01142
0.995577
0.953636
0.997082
1.00462
0.949632
1.00107
1
1.00469
0.953747
1.31287e-07
1.00122
0.0298021
1.00018
1.31576e-07
1.00089
0.0299209
0.986539
1
1.02741
1.03532
0.983983
1.10497
0.988656
0.990479
1.00138
1.00876
1.00907
0.999597
1.00228
1.00806
0.155086
1.00175
0.664704
1.00064
0.155038
1.00147
0.665023
1.01232
0.995684
0.978589
0.969034
1.00292
0.99649
0.983535
1.00087
1.00385
0.999549
1.00081
1.00185
1.00372
0.999447
0.778186
1.00242
0.879969
1.00176
0.778516
1.00236
0.879649
0.870036
1.0207
1.00903
0.985305
0.988704
1.0331
1.01098
0.998164
1
0.980304
0.992238
0.99854
1
0.978689
0.885639
1.00302
0.763211
1.00272
0.884566
1.00322
0.762896
0.999883
1.02164
1.03821
1.01786
0.986422
1
1.03757
1.01263
1.02405
1.02526
1.03087
1.01236
1.02432
1.02533
0.63331
1.00194
0.151595
1.00387
0.634002
1.00165
0.150912
1.02836
0.988294
0.902286
1.01131
1.01225
0.929277
0.950241
1.01425
1.01991
0.989418
1.02671
1.01574
1.01951
0.989427
0.0333849
1.00018
3.12181e-07
1.00123
0.0335342
1.00001
3.12362e-07
0.868747
1.01487
1
1.00581
0.866839
0.99572
1.02733
0.997819
1
0.876398
0.985125
0.986207
1
0.870344
7.36531e-09
0.565658
6.43385e-08
1
7.38449e-09
0.565927
6.48209e-08
0.606765
0.953889
0.987213
1.02382
1.24423
0.999024
1.00055
1.0035
1.00962
1.01442
1.01002
1.00388
1.00859
1.00161
5.93069e-10
0.107181
5.93073e-10
0.395104
5.9307e-10
0.104346
5.93073e-10
0.951159
1.05455
0.973544
0.965014
0.982509
0.969466
0.882642
1.00747
1.00416
0.995239
0.999156
1.00829
0.982316
1.00404
1.30967e-11
0.203717
1.30967e-11
0.0814833
-5.26413e-20
0.198286
-3.95685e-20
0.974966
1.00428
0.910373
0.996034
0.943744
1.01378
0.978677
1.01005
1.01671
1.01085
1.04396
1.00442
1.01747
1.08945
2.28351e-09
0.965464
3.24766e-10
0.393277
-8.85723e-22
0.969288
-4.21912e-17
1.0053
0.986694
0.970919
0.965428
1.00611
0.986873
0.937314
0.997679
1.00739
0.946512
1.00325
0.997796
1.00768
0.947969
8.02954e-08
1.00116
0.0288734
1
-2.71833e-15
1.00039
0.0223176
0.936662
0.869164
1.01618
1.01739
0.927526
0.805116
1.05182
0.982844
1.0011
1.01096
0.99989
0.971772
1.00075
1.0086
0.154007
1.00164
0.664232
1.00016
0.147564
1.00155
0.664457
1.00828
0.998325
0.985882
0.957796
0.99995
1.00129
0.913694
0.999754
1.00348
0.990213
1.00082
1.00045
1.00354
0.99154
0.777737
1.00221
0.877814
1.00146
0.777304
1.0014
0.883739
0.948963
1.04534
1.00683
0.966719
0.92373
1.00777
1.00852
0.999399
0.99995
0.975269
0.978641
0.998793
0.999963
0.985899
0.883227
1.00279
0.762554
1.00172
0.888714
1.00255
0.763516
1.02075
1.04877
1.02597
1.05727
1.02116
1.03788
1.03891
1.01298
1.02452
1.02788
1.03455
1.01302
1.0249
1.02746
0.633121
1.0019
0.151056
1.00389
0.632509
1.00173
0.144604
1.0082
0.989496
0.938067
1.01034
1.03348
0.92159
0.948729
1.00786
1.01906
0.989749
1.02232
1.01004
1.01962
0.990031
0.0325326
1.00014
2.05497e-07
1.00088
0.0265734
1.00004
-1.95424e-15
0.868852
0.979672
1.01815
1.00819
0.979978
1.00117
1.05433
0.981112
1.0015
0.912371
0.984176
0.970916
1.00018
0.876053
3.91491e-09
0.565611
4.1231e-08
1
-2.10193e-17
0.563855
-2.53333e-15
1.23361
0.974098
1
1
1.32507
0.995679
0.997344
1.00354
1.01172
1.01391
1.14777
1.00275
1.01081
1.04757
1.69724e-10
0.104979
1.69726e-10
0.386717
-2.10486e-16
0.0964245
-1.75941e-16
1.0058
1
0.79686
0.780341
0.794641
1.0055
1
1.00853
1.01675
1.01388
1.02037
1.02069
1.01384
1.00873
1.00127
0.82766
1.00298
0.92002
0.827007
1.0028
1.00111
1.00574
1.04761
1.00429
1.01663
1.00915
1.00694
1.00449
1.0057
0.779145
1
0.796528
0.793869
1.00506
1
1.0083
1.0232
1.08027
1.01359
1.03968
1.01386
1.00834
1.00153
0.920464
0.826394
1.00239
0.826208
1.00302
1.00134
1.0074
1.00369
1.00004
1.00035
1.00443
1.00006
1.00769
0.999663
1.02486
0.994441
1.01238
0.983185
0.996022
1.00537
1.00062
1.00018
0.999897
1.00055
1.00036
0.999584
1.00111
1.00619
1.01096
1.01536
0.989418
1.01384
0.997903
1.00631
1.00742
1.00038
1.00367
1.00026
1.00387
1.00022
1.00689
0.984314
1.00665
0.931878
0.993974
0.932187
0.995109
0.971709
0.999998
1.00094
1.00032
0.999636
1.00047
0.999757
0.999428
1.0025
1.00132
1.00186
1.00092
1.00178
1.00191
1.00329
0.999877
0.979171
1.0067
1.0015
0.951884
1.00621
0.998476
1.00635
1.005
1.0021
1.00147
1.0066
1.00259
1.00622
0.998928
0.999028
1.00358
0.950317
1.00375
0.985032
0.997107
1.00274
1.00168
1.00264
1.00197
1.00327
1.00226
1.0028
0.993503
0.999276
0.949566
1.00449
0.980736
1.00529
0.99564
1.00622
1.00193
1.00535
1.00287
1.00625
1.0028
1.00636
0.996766
0.999728
1.00002
1.00014
1.0002
1
0.999948
0.995746
0.964011
1.00005
1.00232
0.965701
1.00006
0.999438
0.999971
1.0004
1.0016
1.00162
1.00023
1.00155
1.00011
0.989007
1.00491
1.00163
1.00123
1.00105
0.997139
0.998691
0.996047
1.00047
1.00041
0.999947
1.00025
1
0.999684
0.994413
1
0.967939
1.00016
0.971948
1.00011
0.995384
0.999961
1.00171
1.00017
1.00152
1.00041
1.0016
0.999857
1.0034
1.00428
1.00513
1.00394
1.00414
1.00505
1.00396
1.00026
1.00013
1.00007
1.00001
1.00009
1.00036
1.00058
1.0018
1.00382
1.00141
1.00295
1.00396
1.00095
1.0025
1.00461
1.00559
1.00422
1.00251
1.00436
1.00427
1.00365
1.00397
1.00427
1.00395
1.00498
1.00438
1.00521
1.00343
1.00071
1.00004
1.00006
1.00026
1.00013
1.00066
1.0004
1.00226
1.00339
1.00379
1.00091
1.00448
1.00143
1.00162
1.00005
1.00105
1.00327
1.00276
1.00081
1.00311
1.00042
1.00212
1.00754
1.00778
1.01963
1.0079
1.00788
1.00185
1.00234
1.00457
1.00601
1.00508
1.0043
1.00587
1.00241
0.998894
0.999417
1.00012
0.975991
1.00003
0.975027
0.997522
1.00062
1.00297
1.00086
1.0029
1.00111
1.0033
1.00001
1.00249
1.0201
1.00899
1.00753
1.00852
1.0075
1.00229
1.00269
1.00532
1.00412
1.00578
1.0045
1.00605
1.00245
1.00691
1.00938
1.00558
1.00421
1.0096
1.00547
1.00698
1.00224
1.00774
1.00998
1.0161
1.01111
1.01005
1.00159
1.00266
1.00361
1.00624
1.00318
1.00342
1.00644
1.00246
1.0116
1.02988
1.024
1.02497
1.02384
1.02476
1.01192
1.0072
1.00441
1.00947
1.00557
1.00897
1.00567
1.00716
1.00259
1.01519
1.01792
1.01058
1.00731
1.01034
1.00279
1.00282
1.00357
1.00317
1.0063
1.00379
1.0064
1.00284
1.01183
1.01061
1.00289
1.00373
1.01099
1.0027
1.01145
1.01738
1.01072
1.00833
1
1.00958
1.00805
1.01794
1.00638
1.00079
1.00371
1.00086
1.00104
1.0039
1.0069
1.0198
1.02843
1.02122
0.989711
1.02263
0.996579
1.01691
1.01112
1.00359
1.01201
1.0036
1.01168
1.00301
1.01105
1.01718
0.99995
1.00705
1.00721
1.00921
1.00793
1.01706
1.00643
1.00102
1.00101
1.00416
1.00119
1.00392
1.00623
0.999133
1.00087
1
1.00027
1.00094
1.00001
0.999285
0.965362
0.948905
0.994505
0.994802
0.973634
0.9965
0.965082
0.986636
1
0.99946
1
1
0.999216
0.988103
0.984975
0.970393
1
0.941075
1
0.982063
0.985224
0.998194
1.00054
1.00085
1
1.001
1.00008
0.99874
0.952183
0.999446
0.928209
1.00076
0.931099
0.999301
0.935349
0.987293
1.00021
1
0.999143
1.00006
0.999615
0.987363
1.00032
1.00031
0.928958
1
1.00025
0.929589
1.00054
1.00305
1.0114
1.00556
1.01228
1.01538
1.00301
1.00626
1.00106
0.886377
1.00142
0.835894
0.885951
1.00097
1.00221
1.00412
1.09152
1.00997
1.07298
1.01017
1.08699
1.00398
1.00067
0.999853
1.00011
0.928492
1.00036
0.928638
1.00041
1.00326
1.02718
1.0231
1.00411
1.03387
1.00312
1.00572
1.00145
0.832922
0.885587
1.0027
0.88442
1.00107
1.00275
1.00384
1
0.797902
0.779203
1.00446
0.800375
1
1.01549
1.10781
1.01552
1.11166
1.01141
1.08836
1.01214
1.00152
0.826518
1.0032
0.917875
1.00126
0.823737
1.00284
1.01215
1.02926
1.0044
1.00438
1.0574
1.01028
1.00424
1.00374
0.779208
1
0.799817
0.799327
1.00367
1
1.01861
1.02334
1.0703
1.01449
1.09775
1.01709
1.01906
1.00222
0.918069
0.821392
1.0009
0.822177
1.00216
1.00264
1.00623
1.00378
1.00081
1.00015
1.00659
1.00394
1.00127
0.950964
0.935593
0.99564
1.00103
0.972413
0.929949
0.998863
1.00006
1.00079
0.999775
1.00097
1.00003
1.001
1.00016
1.0033
1.00763
1.01849
0.974998
1.01545
0.993872
1.00434
1.00615
1.00024
1.00387
1.0021
1.00418
1.00193
1.00601
0.968482
1.02026
0.9476
1.00176
0.930433
0.998446
0.994927
1.00027
1.00141
1.00145
1.00359
1.00148
1.00171
1.00038
1.00297
1.00374
1.00233
1.00142
1.00302
1.00351
1.00196
0.996347
0.948542