/*--------------------------------*- C++ -*----------------------------------*\
| =========                 |                                                 |
| \\      /  F ield         | OpenFOAM: The Open Source CFD Toolbox           |
|  \\    /   O peration     | Version:  5.0                                   |
|   \\  /    A nd           | Web:      www.OpenFOAM.org                      |
|    \\/     M anipulation  |                                                 |
\*---------------------------------------------------------------------------*/
FoamFile
{
    version     2.0;
    format      ascii;
    class       surfaceScalarField;
    location    "3.6";
    object      alphaPhi10;
}
// * * * * * * * * * * * * * * * * * * * * * * * * * * * * * * * * * * * * * //

dimensions      [0 3 -1 0 0 0 0];

internalField   nonuniform List<scalar> 
25642
(
2.30518e-08
-6.11597e-09
4.93469e-08
2.24541e-08
2.3652e-08
2.17113e-08
-7.38113e-09
-6.65671e-09
-7.76343e-09
1.77083e-08
2.98688e-08
2.12597e-08
3.2704e-08
-6.55017e-08
-2.50904e-08
1.81669e-08
1.85346e-08
1.61923e-08
1.77643e-08
5.75685e-08
4.46123e-08
3.26176e-08
5.71464e-08
2.70631e-08
-7.7761e-09
1.84945e-08
-2.36169e-08
-6.71408e-09
-3.17516e-09
1.6121e-09
1.32134e-08
-4.9256e-12
6.27781e-08
6.27811e-08
6.27763e-08
2.05845e-22
1.86651e-18
1.65924e-21
1.03224e-19
5.43248e-18
-1.32847e-17
4.8784e-18
1.74837e-18
2.79557e-18
1.75218e-18
1.78248e-25
1.59445e-22
2.15433e-24
8.92219e-27
4.15403e-26
1.9177e-28
6.03619e-28
1.98741e-29
5.23859e-30
1.19553e-30
1.37533e-30
7.7823e-32
1.78052e-34
2.49999e-33
-1.40511e-33
1.91511e-38
3.47139e-37
9.91213e-37
6.53809e-42
6.64679e-41
1.37191e-41
2.65682e-45
1.93353e-44
9.83284e-44
1.08954e-48
4.58159e-48
6.29439e-47
4.49623e-52
1.15021e-51
-1.03541e-49
1.84809e-55
5.00941e-55
-6.83724e-52
7.59712e-59
8.85415e-59
-1.29534e-55
3.18792e-62
2.55846e-62
-1.11537e-59
1.32511e-65
1.00776e-65
-1.23593e-61
5.4377e-69
1.42933e-69
-7.30012e-65
2.27051e-72
5.36684e-73
9.2696e-70
1.38484e-75
-4.95251e-76
1.09172e-71
1.11736e-78
5.85277e-80
-7.62201e-75
2.4078e-82
-3.60135e-83
-4.82712e-78
1.72827e-85
7.62698e-87
-7.1479e-81
2.77674e-88
-5.04324e-89
1.24183e-83
6.35309e-92
9.72026e-94
1.2108e-87
6.46027e-95
3.42978e-95
-6.1268e-91
1.46516e-98
1.00927e-99
-1.57661e-94
2.62422e-101
-2.97735e-103
4.07636e-97
6.53669e-104
-3.71642e-104
5.75887e-100
1.14044e-107
4.12728e-109
-3.28706e-103
6.11306e-111
5.94845e-112
2.05441e-106
9.16299e-114
5.00211e-115
-1.5346e-109
2.49141e-116
2.10172e-117
-1.01354e-112
2.07309e-120
-1.53037e-121
1.87923e-118
6.93706e-124
-5.32145e-125
-1.62432e-125
6.55267e-127
4.0151e-128
-6.98667e-123
1.20499e-129
5.5513e-131
-2.48828e-125
1.93432e-132
3.67542e-133
-4.14313e-128
3.40536e-135
6.46174e-136
-8.06248e-132
5.45321e-139
-1.56111e-140
-6.91493e-135
3.84931e-142
1.49526e-142
-2.79239e-137
8.14631e-146
7.43275e-148
-1.69259e-141
1.39137e-148
-2.48136e-152
6.0506e-147
1.55447e-150
6.35839e-152
-1.49746e-147
1.58971e-155
1.95077e-155
-6.96403e-10
1.84992e-08
-1.16544e-08
1.62009e-08
7.20894e-08
4.57122e-09
1.03822e-08
1.80167e-08
1.1575e-08
5.14743e-08
5.60291e-08
4.77286e-08
4.81922e-08
5.01123e-08
-1.1162e-08
-1.41444e-08
1.75143e-08
1.15008e-08
1.7823e-08
5.98343e-08
-1.0481e-08
-1.17139e-07
1.17449e-08
1.53566e-08
1.19873e-08
1.63412e-08
1.33833e-08
1.93402e-08
3.45283e-08
2.04565e-08
-3.17203e-09
2.47781e-09
-5.38495e-09
2.79645e-08
-7.37427e-09
-2.84369e-09
-1.35279e-08
1.57746e-11
-5.7754e-12
1.78089e-08
1.00086e-10
1.78154e-08
-1.75391e-18
1.74202e-18
2.76599e-08
2.28299e-18
2.26159e-24
-1.75129e-22
1.59268e-23
7.14686e-22
6.86276e-22
-5.92011e-22
9.07294e-22
6.89301e-28
3.81586e-26
1.55622e-26
1.01845e-28
4.65089e-27
3.1423e-30
3.81082e-31
1.12108e-29
5.5607e-32
1.88769e-34
3.27326e-34
1.74039e-34
1.08532e-38
-1.36977e-38
3.49379e-38
2.86945e-42
1.83031e-41
6.60777e-42
1.13191e-45
5.30419e-45
-6.69774e-44
4.57156e-49
1.62922e-48
6.48934e-49
1.85351e-52
2.66538e-52
-3.3222e-50
7.51221e-56
1.53698e-55
-6.21934e-53
3.03076e-59
5.16585e-59
-2.36062e-58
1.22616e-62
-2.03384e-63
7.29336e-60
4.99528e-66
1.59252e-66
-3.15101e-63
2.0623e-69
4.87049e-69
-7.34834e-66
8.41685e-73
-1.0507e-72
7.79253e-71
3.39606e-76
-5.90172e-78
-2.29152e-72
1.52885e-79
1.70122e-79
1.36052e-75
7.25465e-83
-1.27256e-82
-6.71688e-79
2.67492e-86
1.01967e-86
-3.56658e-82
1.29394e-89
8.7966e-90
-7.10281e-85
6.20874e-93
2.85952e-91
-5.05204e-88
4.5798e-96
3.50219e-97
-6.7033e-92
5.47961e-99
4.75687e-100
-1.38494e-94
1.23993e-102
-2.92784e-100
-2.51638e-99
1.50008e-105
-2.73557e-103
8.1993e-100
5.66381e-109
4.57659e-110
-2.22941e-104
5.10021e-112
-1.97968e-111
4.18902e-107
1.34952e-115
-7.02635e-116
-1.71322e-110
3.35829e-118
6.76319e-120
-4.69494e-120
4.92163e-120
-4.59804e-122
4.55784e-118
3.4581e-124
-2.83219e-124
1.24575e-119
1.17885e-127
-3.03419e-127
-5.41172e-123
1.03889e-130
-2.78472e-131
-8.40328e-126
2.01201e-134
1.00154e-133
-2.90112e-129
7.65861e-138
1.086e-138
8.60741e-140
4.52663e-141
1.22212e-141
9.90662e-136
2.43375e-144
1.39264e-145
-8.38823e-139
7.66698e-148
-9.80596e-147
-5.11118e-143
2.81259e-151
-2.96371e-150
4.2889e-147
3.16671e-153
3.06935e-155
5.95221e-151
7.94683e-158
-3.13285e-152
-1.16849e-08
1.62924e-08
-4.00518e-09
-6.06667e-09
6.01823e-09
8.67496e-08
1.98945e-08
1.98571e-08
7.78836e-08
6.60637e-09
1.91685e-08
2.04812e-08
2.85445e-09
1.99464e-08
-3.95955e-08
-6.10279e-08
-5.16925e-09
1.28907e-07
-4.5246e-08
-5.5889e-08
-2.33107e-08
-7.59491e-08
-3.06648e-07
-3.70412e-07
-1.71686e-07
-1.78676e-07
-1.25674e-08
-2.27914e-08
-1.28669e-08
-9.77535e-09
-2.00767e-09
-4.07809e-09
1.6444e-09
4.74841e-09
2.24034e-09
3.91769e-10
1.50603e-10
1.14768e-09
-1.53683e-10
1.417e-09
3.02856e-17
-1.34075e-18
-5.74826e-09
-3.73821e-18
-1.41571e-16
1.39378e-16
-3.90849e-17
-2.52497e-18
1.82334e-23
-2.50643e-21
3.23352e-22
7.84258e-20
8.72981e-20
9.81042e-20
3.19171e-20
-7.16104e-26
-3.18651e-25
1.05551e-26
1.34566e-26
-2.43213e-27
5.21206e-29
1.44375e-29
-3.66318e-29
2.50718e-29
4.35937e-34
-2.80079e-32
2.61709e-32
8.20641e-38
-4.46668e-36
5.84225e-36
3.09444e-41
-7.70285e-40
2.46673e-40
1.23093e-44
-1.88136e-43
-7.2954e-43
4.99833e-48
-5.45776e-47
-1.83817e-46
2.06844e-51
-9.00554e-51
-1.04082e-47
8.54147e-55
-2.8289e-54
2.47058e-51
3.44695e-58
-1.12888e-57
-1.23887e-55
1.42907e-61
-4.05316e-61
1.18688e-57
6.10095e-65
-6.5024e-65
-3.15437e-61
2.75455e-68
7.32521e-68
6.42008e-64
1.08763e-71
-3.4078e-72
-3.14818e-68
5.11103e-75
-7.13329e-75
-1.46514e-70
2.80526e-78
-8.27165e-79
2.27444e-73
1.20449e-81
1.9007e-82
-4.45169e-77
7.3747e-85
-2.74841e-85
2.64864e-83
1.80637e-87
-1.3639e-88
4.28226e-85
1.23185e-90
-8.4933e-92
4.19412e-86
1.6666e-94
-1.06179e-94
1.02175e-95
6.18875e-97
-3.72065e-97
8.35469e-99
1.52704e-98
1.53679e-100
-7.86974e-96
1.07152e-102
1.16782e-103
-3.81582e-98
1.65239e-106
9.20931e-108
2.15787e-102
7.16312e-110
1.01125e-109
-3.85403e-107
2.78022e-113
-5.66226e-114
-4.45769e-109
2.45602e-116
-6.5051e-118
-2.34341e-113
1.21825e-118
5.3627e-120
-4.04166e-115
1.6292e-122
8.08573e-123
4.49367e-118
6.37891e-126
-1.1638e-126
-7.41803e-121
4.41703e-129
3.61908e-128
-8.56254e-124
3.14901e-132
2.8302e-133
7.40536e-127
8.22833e-136
-4.03883e-136
-3.48478e-131
2.76904e-139
-8.15218e-139
4.74925e-136
2.79149e-142
-1.53323e-142
5.06435e-140
1.05376e-144
3.44123e-146
-6.95598e-141
4.04271e-148
7.72901e-149
-3.66098e-144
5.2334e-152
-1.20339e-153
1.9943e-149
-7.52456e-155
1.15161e-154
3.64804e-08
2.16151e-08
1.28165e-08
1.12442e-08
8.89466e-09
7.17756e-09
1.03532e-09
7.9541e-09
-1.78517e-07
1.22561e-07
1.81108e-07
-1.59853e-07
2.98459e-08
3.69038e-08
7.12059e-08
5.29747e-08
1.73074e-08
5.10345e-08
7.69831e-09
1.67181e-08
2.46454e-08
-3.7803e-08
6.83391e-09
-1.05463e-07
-7.21115e-08
-9.08932e-08
1.43649e-09
8.14809e-09
3.77145e-09
1.14053e-07
1.23561e-07
-5.65508e-11
2.03658e-07
1.43358e-09
-1.89017e-08
2.59564e-09
6.34455e-10
1.48542e-08
-4.76475e-11
3.83593e-10
-2.66499e-10
5.26579e-11
-2.16319e-11
7.20212e-14
9.27023e-17
2.3357e-08
4.11704e-16
2.3357e-08
-1.75835e-22
-3.9977e-20
2.09679e-21
3.37962e-19
6.46007e-20
2.4965e-19
4.59334e-19
7.02203e-27
-7.22923e-24
-8.0138e-26
1.47137e-27
-1.04825e-26
9.72257e-30
8.44764e-29
-9.17678e-28
8.8955e-30
8.16685e-32
-6.74909e-30
3.95049e-32
4.44576e-36
-2.91361e-33
6.53301e-35
9.12629e-40
-3.55667e-37
1.5653e-38
3.51232e-43
-8.53647e-41
4.15315e-42
1.4253e-46
-2.26568e-44
-4.31351e-45
5.81562e-50
-5.1713e-48
-1.50531e-47
2.33424e-53
-1.50957e-51
-1.93994e-50
9.45889e-57
-3.07423e-55
9.08877e-54
3.84374e-60
-9.47383e-59
-2.52839e-57
1.64067e-63
-3.28303e-62
-3.617e-60
7.7696e-67
-9.90453e-67
1.16606e-62
3.22471e-70
-1.6049e-69
3.73642e-66
1.44034e-73
-1.69089e-73
-1.05828e-69
5.52734e-77
-7.4371e-77
-9.17498e-73
4.28791e-80
-1.13284e-80
2.50983e-77
9.94531e-83
1.18101e-83
-7.06234e-79
1.12821e-86
-2.63849e-85
-7.20956e-83
7.93936e-90
1.05963e-90
1.702e-85
2.79834e-92
1.25343e-93
-1.36243e-88
6.94813e-96
-3.22063e-96
-6.22302e-92
1.57972e-99
-4.80764e-98
-2.47627e-94
1.3495e-102
-1.47108e-103
-9.82374e-99
3.16558e-105
1.03534e-107
-6.63415e-102
3.81186e-109
7.32037e-110
-1.76194e-104
2.355e-112
-1.69873e-111
-1.95619e-107
5.05039e-115
-6.66073e-115
8.99161e-111
1.54215e-117
4.52514e-118
-7.97132e-114
3.04419e-121
1.51329e-121
-1.15382e-116
1.54889e-124
6.21489e-126
-6.70496e-120
2.61563e-127
3.24039e-128
-5.90701e-123
6.51451e-131
2.75216e-131
8.67158e-126
7.61811e-134
-7.6599e-133
3.74484e-129
8.7669e-137
1.57456e-137
-8.35802e-133
2.1093e-140
8.4748e-142
-2.68522e-136
5.55324e-144
3.4988e-144
-5.2396e-140
3.11986e-147
1.34419e-147
-1.4651e-142
3.46374e-150
4.91526e-151
-1.0469e-146
-3.6948e-152
-4.73111e-149
1.38616e-08
1.17365e-08
2.59364e-08
3.24538e-08
3.1354e-08
3.00228e-08
2.90414e-08
5.31788e-09
-6.02038e-09
-6.83862e-09
3.80137e-09
-1.20252e-08
-1.17982e-08
-2.01599e-09
-3.69428e-08
-4.1845e-07
5.75151e-09
1.0719e-07
1.63156e-07
-1.74059e-08
-9.26744e-09
-8.85005e-09
-1.73631e-08
-7.51647e-09
-1.43087e-08
1.56797e-08
7.49593e-09
-1.04165e-07
-3.70459e-08
-1.3068e-07
3.31799e-07
1.43838e-08
1.86061e-08
1.1434e-08
-1.01323e-07
-3.94388e-08
-1.01431e-07
1.51809e-08
9.74517e-09
1.15826e-08
1.27128e-08
7.18526e-09
-3.67993e-07
8.04775e-07
-5.003e-08
-2.32652e-10
-2.77238e-08
5.14377e-09
-4.27066e-09
2.5477e-08
-2.991e-09
3.68317e-10
-9.27163e-10
-6.7917e-11
3.05423e-10
-2.89394e-10
8.94065e-10
4.70293e-10
2.39911e-10
2.18824e-10
2.73496e-10
1.65452e-10
3.24622e-10
1.84381e-10
-5.46098e-11
5.4389e-13
3.09088e-08
7.38119e-12
3.09097e-08
5.24704e-23
-3.99387e-20
-2.12911e-21
6.02157e-18
6.49862e-18
7.39693e-18
3.64317e-18
1.42003e-25
-1.03027e-23
-5.15574e-25
6.71195e-27
-5.08315e-27
3.40934e-29
6.7954e-28
-9.61637e-28
5.98363e-29
1.29913e-30
-7.88954e-30
8.36911e-31
1.07097e-34
-3.36525e-33
4.17421e-34
1.57433e-38
-4.06639e-37
-2.60072e-36
5.87467e-42
-1.00015e-40
-2.83951e-39
2.37575e-45
-2.79994e-44
1.0443e-43
9.6699e-49
-7.29571e-48
1.74035e-47
3.97519e-52
-2.03528e-51
-3.0829e-50
1.64038e-55
-7.55674e-55
6.46519e-52
6.77634e-59
-1.42616e-58
-2.59663e-56
2.94611e-62
-3.74567e-62
-2.37739e-58
1.15726e-65
-1.03188e-65
-6.37337e-62
5.02542e-69
-3.36219e-69
-3.12471e-65
2.21294e-72
-1.03165e-72
-7.36707e-69
1.19464e-75
6.09802e-76
4.10694e-71
5.17961e-79
-9.54578e-80
-8.41746e-75
7.09572e-82
-1.04747e-83
1.09134e-77
1.43942e-84
-2.09052e-86
-7.00687e-81
3.69259e-88
-8.9259e-88
-6.22565e-83
2.50333e-91
-1.27348e-91
-5.24311e-87
1.29194e-94
-1.18826e-95
-2.25283e-91
1.97028e-97
-5.59327e-99
-1.18449e-92
2.39588e-101
-4.77566e-102
2.99804e-97
9.23992e-105
-3.33924e-104
-2.3829e-100
1.35145e-107
-2.85626e-109
-4.39101e-103
3.97192e-110
-2.87885e-111
-2.50652e-105
5.53979e-114
1.26958e-114
-2.20909e-108
2.05698e-117
-4.11626e-118
4.22648e-118
1.55861e-120
-1.70952e-121
1.27186e-115
3.68895e-124
4.67494e-124
1.30809e-118
7.17711e-127
-4.15741e-126
-6.76326e-123
4.87001e-129
-1.82429e-129
-1.48228e-124
1.44049e-132
-4.7204e-133
-1.82098e-127
4.87826e-136
-7.8161e-137
4.72345e-131
6.48476e-139
-1.20501e-139
-2.25334e-135
3.99263e-141
3.13502e-142
-8.82223e-138
5.26327e-145
2.57272e-145
-1.02895e-141
3.58091e-148
1.16678e-148
-2.44564e-144
9.9816e-153
-6.4528e-147
3.22948e-08
2.35761e-08
1.84682e-09
1.85256e-08
5.33769e-10
-6.90834e-09
2.92124e-08
2.49537e-08
-4.48545e-08
8.47129e-09
-2.31928e-09
3.26039e-09
2.52891e-08
2.60175e-08
2.3702e-08
2.49084e-08
-1.31668e-09
-2.71588e-09
7.25167e-10
2.65789e-08
2.80488e-08
2.81235e-08
2.89628e-08
-3.5422e-08
-6.10944e-08
1.49572e-07
3.44863e-08
-2.40417e-08
-2.43095e-08
-2.32521e-08
-2.17484e-08
3.43065e-08
3.29121e-08
3.34825e-08
2.84476e-08
-7.0701e-09
3.33932e-08
2.21435e-08
-2.62002e-09
2.42665e-09
1.89029e-08
2.07776e-09
8.74402e-10
-2.35827e-08
-9.07566e-10
1.0248e-09
-1.36301e-09
-4.52951e-11
-2.93586e-11
-1.15108e-09
8.86994e-10
5.08362e-11
3.20173e-11
1.00336e-10
8.07263e-11
-1.27203e-10
1.10998e-12
6.27757e-08
1.62608e-11
6.27763e-08
-2.34864e-23
-2.49617e-20
-1.59306e-20
6.04633e-18
5.31192e-18
8.34002e-18
3.18489e-18
2.78865e-26
-4.25173e-24
-7.67876e-25
9.98145e-27
-2.04655e-27
8.5183e-30
4.8943e-28
-4.80805e-28
-1.43675e-29
1.09922e-30
-4.0104e-30
-1.09493e-29
9.27988e-35
-1.78856e-33
4.6704e-33
1.37086e-38
-2.1725e-37
5.61743e-37
5.16107e-42
-5.41782e-41
-1.81686e-39
2.14977e-45
-1.44869e-44
7.52199e-43
9.12581e-49
-5.65648e-48
-4.8091e-46
3.74533e-52
-1.17828e-51
3.16891e-49
1.61333e-55
-1.81488e-55
-2.45496e-51
6.33515e-59
1.56385e-59
-9.88944e-55
2.58422e-62
-1.61268e-62
-4.50603e-58
1.21037e-65
-6.53841e-67
-1.3058e-61
6.87048e-69
-8.48054e-70
-2.23728e-64
7.58029e-72
-2.84054e-73
1.38255e-68
3.61336e-74
1.45795e-75
-5.964e-71
2.5992e-78
1.43804e-79
-2.12172e-74
1.24168e-81
7.07358e-84
-1.00065e-77
3.73558e-84
-1.13253e-85
-2.00856e-80
7.49476e-87
3.38169e-87
-4.51951e-83
2.26327e-90
1.40437e-90
-3.39049e-86
4.95457e-94
2.08008e-96
-7.47773e-90
1.79957e-97
5.49254e-99
-1.18839e-93
1.26285e-100
1.15857e-101
-1.74827e-95
1.14987e-103
1.54864e-104
-6.56293e-99
2.77052e-107
-6.07143e-108
2.73395e-102
3.1929e-110
-3.09001e-111
-6.34155e-105
2.35285e-113
3.43324e-114
-4.08118e-108
6.19353e-117
-6.28286e-119
2.90183e-113
1.08277e-119
-1.78964e-121
-1.69883e-115
1.97745e-122
-8.02521e-124
-1.52445e-118
4.8874e-125
2.48158e-126
-6.40059e-121
5.57465e-129
-5.15091e-130
-2.71593e-124
1.77581e-132
-6.89938e-133
-1.57002e-127
9.29567e-136
-4.07177e-138
2.51391e-131
7.63931e-139
-4.3306e-142
-1.12163e-134
1.37514e-142
6.4438e-144
2.4565e-143
5.04058e-146
1.33485e-149
5.74557e-142
1.91535e-149
7.3556e-151
-9.22024e-146
8.29283e-154
8.1041e-153
-2.17926e-08
2.84643e-08
1.88455e-08
5.19723e-09
4.8735e-08
9.82086e-08
4.42626e-08
1.18202e-07
4.52927e-08
4.50156e-08
4.683e-08
1.97736e-07
1.56111e-07
1.50488e-07
1.42494e-07
-2.41363e-09
1.5673e-08
2.68657e-08
1.80719e-08
2.38564e-08
-2.35886e-08
-4.94993e-08
-1.41181e-08
-2.58321e-08
2.48953e-08
-5.28885e-08
-5.32243e-08
-5.04849e-08
-2.36029e-08
-2.34485e-08
-2.40629e-08
3.38095e-08
-4.70693e-09
1.72422e-09
-1.63113e-08
-7.44187e-09
1.47758e-09
1.66797e-08
-1.80392e-09
-5.08083e-09
-1.35374e-08
-7.53377e-10
-3.75203e-10
6.1953e-10
-1.65831e-10
3.28615e-10
-2.62509e-11
-6.63964e-14
2.21645e-08
1.00265e-12
2.21645e-08
-2.75298e-22
4.15185e-21
-4.97974e-21
3.89076e-19
-1.86362e-20
6.86575e-20
5.64716e-19
-4.57236e-28
4.47136e-25
-9.82917e-26
3.45502e-27
1.1708e-28
-1.03664e-29
8.48622e-29
-2.06663e-29
-1.75481e-30
8.17921e-32
-2.88624e-32
-6.17836e-33
4.40572e-36
-4.0635e-36
-2.35544e-35
9.9682e-40
-7.25794e-40
1.56842e-39
3.9654e-43
-1.89352e-43
6.20262e-42
1.62814e-46
-5.20395e-47
-2.24187e-46
6.68136e-50
-1.48574e-50
-2.63518e-47
2.73404e-53
-5.69953e-54
-6.52326e-51
1.15057e-56
-1.13272e-57
-5.28862e-54
4.97309e-60
-2.82431e-61
-3.78016e-57
1.91683e-63
-8.28299e-65
5.30316e-61
7.90995e-67
-8.01376e-69
4.68756e-64
3.48476e-70
-8.15897e-72
-3.40379e-68
1.71978e-73
5.18112e-75
-6.95842e-70
5.65423e-77
-1.15104e-78
1.56451e-78
2.58876e-80
-3.09777e-81
-4.88699e-76
3.42494e-83
-7.07495e-85
-1.74624e-79
7.69215e-86
1.33895e-87
-2.8243e-82
7.14756e-90
-2.96143e-92
6.48578e-86
2.91156e-93
-1.96119e-94
-5.53049e-92
2.06966e-96
-2.25449e-98
3.57188e-94
5.51509e-100
-2.40929e-101
8.44702e-102
3.99723e-103
1.01114e-104
-2.51873e-99
2.95024e-106
-1.50249e-109
-9.81561e-102
3.42412e-109
1.45087e-110
1.49588e-104
2.0918e-112
3.9679e-115
-4.9823e-108
6.35525e-115
1.08579e-117
-1.0455e-110
1.91797e-118
2.28641e-120
-3.00449e-114
4.57987e-122
-3.47193e-122
-1.63992e-117
4.04157e-125
-1.25268e-127
-2.09449e-120
5.48458e-128
3.66253e-129
-7.56448e-123
1.522e-131
-1.1555e-132
-1.19065e-126
1.16494e-134
-4.87154e-136
7.31305e-130
1.06075e-137
-3.1723e-140
-5.07544e-133
1.06269e-140
1.39115e-143
-2.44876e-136
7.1007e-143
5.4051e-146
-1.66918e-139
3.56683e-147
-2.65574e-149
5.61547e-148
4.2619e-150
9.66636e-155
6.38268e-151
1.97945e-153
-8.14891e-149
2.85814e-08
2.12937e-08
-1.91506e-07
-1.38358e-08
-1.21859e-08
-1.37985e-08
-1.25193e-08
5.76611e-08
2.44006e-08
-2.7567e-07
-1.93284e-07
-3.10679e-07
2.96673e-09
-1.38849e-08
2.24352e-09
8.71184e-09
-2.83006e-09
3.61832e-08
1.47435e-08
1.48681e-07
4.1408e-08
2.15918e-09
4.48175e-09
-5.28491e-07
2.19782e-08
-2.91896e-07
3.56147e-08
-4.85533e-08
-2.65478e-08
5.12057e-09
6.22754e-08
5.30942e-08
-1.82477e-07
-2.92264e-08
-4.51253e-08
1.09414e-08
-1.16467e-07
1.0828e-08
-2.38132e-09
5.71946e-09
3.33689e-09
-2.02374e-09
4.44738e-09
3.01102e-08
-1.87482e-09
-3.94735e-09
-2.77986e-08
3.33432e-10
-2.29835e-10
1.30545e-09
5.24772e-11
1.3427e-09
-2.02324e-14
3.59617e-16
4.58199e-09
4.58199e-09
3.41805e-16
8.83058e-15
-1.00768e-15
1.55285e-14
-1.46356e-15
4.79705e-16
4.70396e-16
-4.31371e-23
-4.09549e-23
-6.52022e-22
-1.59525e-20
-2.8804e-21
6.1683e-20
-2.8435e-20
3.42966e-26
4.97668e-26
-2.13554e-26
1.05757e-26
2.61091e-27
-6.22141e-30
2.19072e-29
1.45473e-29
-7.58696e-30
7.28175e-34
2.44836e-33
-5.59971e-33
1.3356e-37
5.64918e-37
-2.35795e-37
5.27776e-41
8.44198e-41
2.42865e-39
2.15928e-44
2.13642e-44
-1.18372e-42
8.88048e-48
6.06411e-48
-1.77348e-44
3.66463e-51
1.61956e-51
-8.9658e-48
1.5395e-54
5.2438e-55
-9.91872e-53
6.40482e-58
5.09622e-59
-4.1967e-54
2.6216e-61
2.8404e-62
2.23331e-58
1.16134e-64
6.81769e-66
-5.71305e-61
4.75375e-68
2.11989e-69
-3.72699e-64
1.8045e-71
-6.69573e-74
-5.22154e-68
1.11713e-74
-5.08998e-77
-7.71623e-72
1.68455e-77
6.90488e-79
-1.24287e-73
5.13665e-81
3.51763e-82
-2.50343e-76
1.29804e-84
2.71901e-86
6.42529e-81
1.45748e-87
5.44077e-90
1.23892e-87
7.41415e-90
-2.63057e-93
-3.02587e-86
5.24221e-94
-6.53853e-96
4.07282e-91
5.81625e-97
1.08102e-98
-1.23016e-92
3.58281e-100
6.46894e-101
-1.15267e-95
8.85478e-104
-6.75862e-105
1.01462e-98
8.39329e-107
3.7624e-109
6.99748e-103
1.5877e-109
-3.20821e-111
-2.37422e-105
2.62611e-113
1.01732e-114
-2.52909e-109
4.06483e-116
-2.5107e-118
-1.4625e-112
5.51612e-119
1.94713e-121
-9.32669e-115
1.31446e-121
3.24139e-123
-1.10147e-117
1.05931e-125
-5.93954e-128
-1.0936e-121
6.39547e-129
2.49772e-130
-4.9866e-124
4.46943e-132
1.85308e-133
-3.53068e-127
1.95506e-135
-9.44219e-137
-1.22352e-130
6.09528e-139
7.52829e-141
-1.05439e-133
2.0796e-142
6.97973e-144
-1.0767e-138
7.97821e-146
-5.4757e-148
1.44819e-146
3.07673e-149
-4.10123e-150
8.80204e-150
1.01799e-152
-3.98194e-153
1.11315e-152
8.49644e-158
-4.4186e-151
-4.81751e-08
3.03809e-08
1.30572e-07
1.08221e-07
3.1139e-08
1.99082e-07
1.48727e-08
1.43843e-07
2.37833e-08
-6.88915e-09
3.38378e-08
1.68591e-07
1.11452e-07
-1.68732e-07
6.01972e-08
6.02551e-09
4.39776e-09
9.74438e-09
8.68735e-08
-5.67523e-10
2.24266e-08
8.29675e-09
-2.64982e-08
3.73221e-08
1.73415e-08
6.01628e-08
1.51611e-08
2.86513e-08
2.43934e-08
6.72706e-09
-6.57632e-09
3.39323e-09
-5.18256e-09
2.81429e-09
5.18694e-09
-3.99803e-10
3.44618e-10
-2.48759e-08
2.17354e-10
-2.46644e-08
2.52398e-16
-1.93768e-18
3.22594e-08
3.22594e-08
-9.3052e-19
2.53194e-16
2.56256e-16
2.53014e-16
2.8469e-24
-2.73236e-22
2.02912e-23
9.08675e-22
3.70881e-22
-7.59602e-22
4.96388e-22
5.95412e-26
1.63479e-26
-3.87766e-26
-3.12777e-29
-5.60982e-29
1.19494e-31
1.16382e-31
1.15278e-30
-4.02138e-32
2.74163e-34
4.68102e-33
-1.56502e-35
2.37404e-38
9.4851e-37
6.7712e-40
5.87603e-42
1.47223e-40
6.9602e-43
2.36462e-45
3.02429e-44
1.20924e-44
9.79079e-49
9.56293e-48
-8.19203e-48
4.04133e-52
2.54454e-51
-2.33316e-51
1.66247e-55
6.59086e-55
1.30329e-53
6.80726e-59
1.35581e-58
5.54918e-58
2.78066e-62
4.31922e-62
-9.11072e-62
1.13357e-65
8.96699e-66
1.22995e-63
4.60937e-69
7.22328e-69
-6.44743e-67
1.90552e-72
9.26142e-73
-1.6457e-70
7.93559e-76
1.96468e-76
-5.88416e-73
3.12289e-79
5.55526e-80
-7.37313e-78
1.25849e-82
-1.49782e-82
7.31588e-80
5.10394e-86
-9.85878e-87
-6.74759e-83
2.07791e-89
-4.57472e-89
1.21913e-85
1.33432e-92
-4.69655e-93
-7.95513e-91
1.7534e-95
1.88947e-96
-8.81713e-92
2.74709e-99
-1.00516e-98
-4.87113e-96
9.71978e-103
-1.73541e-101
-2.98064e-98
7.52612e-106
-9.72781e-106
-1.07981e-103
1.69446e-108
-2.02538e-109
-1.08512e-104
2.72117e-112
-5.89261e-112
-1.10803e-107
1.13445e-115
2.56578e-115
1.01896e-111
3.31292e-119
-2.04348e-119
1.44955e-114
2.67427e-122
-3.34091e-121
4.09888e-123
7.91286e-125
-2.0556e-126
-8.78362e-121
1.06425e-127
-1.71466e-128
-1.61538e-124
1.42402e-130
1.82458e-131
-4.30314e-127
1.89145e-134
-2.49814e-134
4.23699e-130
9.39893e-138
-2.60583e-137
-1.67276e-133
1.12301e-140
-5.58669e-141
1.00376e-136
4.18159e-144
-4.03709e-144
-5.78501e-140
1.14433e-146
6.75351e-148
-3.54229e-143
1.07178e-149
-1.1561e-149
-3.9994e-146
1.09525e-152
-2.36633e-153
-6.38336e-149
-7.77758e-157
4.13332e-155
5.3438e-08
1.06515e-08
3.89126e-08
2.60649e-07
6.13522e-08
5.04269e-08
5.5825e-08
2.64302e-07
2.36035e-07
2.4556e-07
2.10086e-08
5.01182e-08
5.79927e-08
7.51606e-09
3.55112e-08
1.66905e-08
1.84852e-08
3.47111e-08
-7.57987e-09
2.58274e-08
-3.10184e-08
-9.4943e-08
-1.6443e-07
-1.37941e-07
-7.15588e-08
-8.37506e-08
-2.657e-10
8.99426e-09
5.59529e-09
3.5069e-09
-2.00274e-08
-2.50744e-10
-2.29582e-11
1.79923e-08
4.11734e-11
1.79747e-08
2.93009e-22
-8.24407e-20
8.54492e-19
2.71384e-18
5.69546e-21
1.61737e-18
-2.49281e-18
-1.72156e-18
-7.79785e-18
-1.7331e-18
5.99506e-26
-8.55744e-25
5.67916e-27
-2.98762e-29
-7.35279e-29
-5.24599e-30
1.79029e-30
-9.69902e-32
3.80607e-34
-3.02936e-34
3.74339e-38
9.15826e-38
1.22886e-41
-2.31002e-40
5.01997e-45
-1.37943e-43
2.07169e-48
2.18038e-47
8.54946e-52
-1.25591e-51
3.53575e-55
-2.50042e-53
1.45892e-58
-9.3753e-56
5.94685e-62
-2.50011e-59
2.4311e-65
2.77037e-62
9.90657e-69
-4.83909e-66
4.04669e-72
4.10206e-70
1.66127e-75
-4.29076e-72
7.81608e-79
7.72176e-75
4.30178e-82
-5.95788e-78
2.22476e-85
-2.15501e-81
3.07254e-88
-9.83992e-85
8.58075e-92
5.70857e-88
7.6447e-95
1.6525e-91
5.40316e-98
-2.05907e-94
2.95584e-101
-5.88341e-97
1.45924e-104
-3.24028e-101
4.36863e-108
-1.40267e-103
4.02759e-111
5.90349e-106
3.90439e-114
-1.15198e-109
3.2288e-117
2.77543e-113
1.51494e-119
-3.17096e-116
9.97451e-124
-3.83065e-121
2.63026e-127
-1.82283e-125
3.41499e-130
1.14908e-126
1.95719e-132
1.06436e-128
1.86881e-136
-1.40022e-132
1.21083e-139
1.64437e-135
1.71812e-142
-2.08004e-138
3.95118e-146
4.32755e-142
4.07842e-149
-8.94486e-146
6.68025e-153
2.45774e-149
2.6011e-151
2.44739e-09
-2.56502e-09
-2.21834e-07
2.47662e-09
6.17698e-10
-5.61399e-10
6.70379e-08
2.46063e-08
8.17908e-09
6.53263e-09
2.51133e-08
1.24556e-08
-2.4505e-09
3.06443e-08
1.26183e-08
-2.49844e-08
1.48321e-07
3.66488e-08
1.69238e-07
-1.8213e-08
-2.15647e-07
-7.53625e-08
-3.79568e-09
-5.90378e-07
8.98128e-09
1.51409e-08
1.10623e-08
5.76657e-08
-4.93104e-08
3.3033e-09
-9.60969e-09
2.44725e-09
5.5228e-08
-6.34904e-11
-7.1857e-13
-2.75881e-12
4.82279e-08
4.82265e-08
-2.02008e-21
6.92659e-18
-5.03569e-21
-2.01031e-17
1.95441e-17
-2.13838e-17
1.9044e-17
5.15152e-18
7.00065e-18
5.15172e-18
5.4602e-24
7.80846e-22
-2.05988e-24
8.03915e-27
2.26782e-24
-1.88817e-28
3.28511e-27
1.68475e-27
-3.22724e-30
3.52827e-29
2.09641e-29
-1.0174e-31
5.3343e-32
4.14554e-32
6.31512e-34
9.27263e-36
1.28982e-35
-1.84813e-37
2.89124e-39
4.25685e-39
4.72593e-40
2.05452e-42
2.48082e-42
7.01049e-43
1.51766e-45
7.99341e-46
-3.89177e-47
1.07728e-48
-5.59935e-51
1.54457e-49
7.58259e-52
1.43704e-51
3.49373e-53
5.34484e-55
3.58047e-56
-4.09006e-56
3.76357e-58
1.41588e-58
-9.23217e-59
2.64429e-61
7.88621e-62
-2.01386e-62
1.85621e-64
1.40528e-64
3.91809e-65
1.30084e-67
8.97415e-69
3.4844e-69
9.10646e-71
1.99883e-71
6.95893e-72
6.36505e-74
-7.33225e-76
5.01585e-75
4.44401e-77
1.88937e-77
5.49814e-78
3.09815e-80
2.00737e-81
9.11743e-82
2.15626e-83
-3.33955e-85
8.81292e-85
1.49894e-86
6.34475e-90
-3.73013e-87
1.03975e-89
7.67692e-90
-6.43236e-91
7.20692e-93
3.91122e-93
3.83163e-95
4.99108e-96
9.01817e-97
-1.17323e-96
3.45504e-99
2.58307e-99
-1.25115e-99
2.39011e-102
2.65511e-103
-3.06176e-103
1.64757e-105
1.51479e-107
-5.16301e-106
1.13407e-108
9.93679e-110
1.86166e-109
7.80169e-112
3.39108e-114
-5.64344e-113
5.36253e-115
1.18513e-115
-4.16505e-121
3.68079e-118
-2.7084e-120
1.06414e-119
2.52345e-121
2.22398e-122
6.2556e-123
1.7269e-124
2.55698e-126
9.85394e-127
1.17988e-127
-8.73709e-129
1.88684e-127
8.05022e-131
8.83775e-132
8.00631e-133
5.47978e-134
2.56306e-136
8.7274e-135
3.72109e-137
6.20635e-138
2.48416e-137
2.5256e-140
-2.41425e-142
1.42431e-143
1.71036e-143
-8.19087e-146
5.29685e-145
1.09625e-146
-1.39419e-149
5.18657e-148
1.2521e-150
9.19862e-151
-5.7892e-09
5.47123e-09
9.1385e-09
-1.23799e-08
-6.53699e-09
-6.78406e-09
-3.87388e-07
-4.0648e-07
-4.13523e-07
-4.01222e-07
7.0049e-09
5.94884e-09
6.57147e-09
1.13524e-08
-5.42493e-09
1.56463e-08
-4.47504e-09
6.19982e-09
1.57805e-09
3.58742e-09
1.2277e-09
2.90641e-09
-1.67006e-07
9.86745e-09
-1.88601e-07
1.87218e-09
-4.48703e-08
-1.96375e-07
4.30217e-09
1.85048e-08
-3.97005e-09
3.46608e-08
-7.13626e-09
5.25538e-09
1.46283e-09
7.56587e-09
-3.7822e-08
9.13981e-09
2.11797e-08
-1.00204e-08
-1.23732e-07
3.01248e-08
9.1707e-08
3.76679e-09
3.4348e-08
-3.52855e-09
2.4903e-09
-1.27845e-07
3.07854e-10
-1.12264e-11
4.77603e-12
-3.75024e-11
1.44624e-12
-3.29221e-12
3.55356e-17
4.97358e-18
1.01078e-18
5.10347e-18
1.37353e-18
9.14981e-23
-6.20748e-22
-1.13892e-23
-2.30625e-20
-1.80592e-20
-2.36522e-20
-1.80474e-20
5.93136e-25
-2.9415e-25
-1.07178e-26
2.56678e-28
1.04331e-25
-1.72781e-30
1.68444e-30
2.23807e-27
-2.96509e-32
2.22837e-33
8.81947e-31
-1.00371e-34
4.47743e-37
5.42705e-35
-3.92775e-38
1.80767e-40
2.76417e-38
-1.47651e-41
1.35069e-43
1.38025e-41
-3.96146e-44
9.99201e-47
5.1207e-45
8.23303e-48
7.10278e-50
2.30862e-48
-7.31869e-51
5.03812e-53
-1.07569e-52
-8.99211e-54
3.57175e-56
6.0481e-55
8.48992e-58
2.52856e-59
1.21626e-58
-5.43798e-60
1.78565e-62
-1.73312e-62
3.4468e-63
1.25996e-65
3.19205e-65
3.09922e-66
8.86794e-69
5.31604e-68
-1.24171e-69
6.22364e-72
2.17048e-73
1.79923e-72
4.36579e-75
8.34962e-75
-4.95587e-76
3.05917e-78
-1.84224e-77
9.71941e-79
2.1373e-81
-2.36971e-82
1.44347e-82
1.49008e-84
1.13946e-85
-3.11971e-87
1.03767e-87
6.7686e-87
-7.01261e-88
7.22821e-91
1.00331e-91
1.12358e-91
5.02437e-94
1.17141e-94
8.03707e-95
3.48825e-97
-4.07325e-97
6.50113e-98
2.41678e-100
-5.92196e-100
-7.53543e-101
1.67207e-103
-2.66989e-105
4.36531e-105
1.15493e-106
1.73322e-106
-4.28113e-107
7.96337e-110
7.6574e-110
1.36172e-110
5.48326e-113
2.31204e-113
3.21881e-114
3.76961e-116
-3.10478e-116
8.0919e-117
2.58626e-119
2.1133e-120
1.02468e-123
1.77348e-122
-6.53378e-122
3.92552e-123
1.21382e-125
-5.12326e-125
5.05602e-126
8.29316e-129
1.71016e-128
4.91468e-129
5.66282e-132
-8.32342e-132
-1.26773e-132
3.85411e-135
1.99898e-136
-8.0836e-136
2.61985e-138
1.33122e-139
5.39077e-139
1.77793e-141
-3.12044e-141
4.03482e-142
1.20321e-144
6.20915e-146
1.86084e-147
7.71227e-148
7.88327e-149
5.29965e-151
6.66432e-151
-3.99769e-158
-2.94399e-07
1.05359e-08
1.79241e-08
3.57766e-09
1.74224e-07
1.70213e-08
9.57548e-09
1.9801e-08
1.29394e-08
-2.34368e-08
5.69678e-07
2.45504e-08
-2.39303e-08
9.93783e-07
4.14514e-08
8.97401e-09
1.64291e-08
3.34318e-08
2.29842e-08
5.34165e-07
1.92387e-07
5.92165e-07
-3.89968e-08
-4.3979e-08
1.99902e-07
-4.53697e-07
-3.43216e-08
-3.97179e-08
-2.92293e-07
-1.41629e-08
-1.35462e-08
-2.21873e-08
-2.30178e-08
2.50007e-07
4.66719e-08
1.2769e-09
-1.5406e-08
3.06487e-09
5.24779e-09
-4.05974e-08
4.94863e-10
-2.2074e-10
1.69898e-10
-3.48029e-10
2.24171e-10
-8.77945e-11
3.12578e-16
-1.12618e-17
3.03839e-18
-2.92375e-18
6.91326e-18
-2.20659e-16
3.55729e-16
-1.51744e-16
-2.03605e-17
1.4657e-23
-8.96031e-21
-2.06091e-22
-1.00772e-20
-7.23819e-20
-1.27655e-20
-6.62637e-20
-1.23946e-25
-2.23994e-24
-7.55542e-27
5.19371e-25
-3.84566e-26
-2.89651e-29
3.18456e-27
-1.4152e-27
-1.46149e-29
7.49136e-31
-5.16253e-30
-2.35571e-32
7.68729e-35
-1.28756e-33
-3.8723e-36
4.42652e-38
-3.75963e-37
-7.69718e-40
3.2021e-41
-1.5763e-40
-7.55359e-43
2.21744e-44
-6.44402e-44
8.09553e-46
1.51649e-47
-2.18433e-47
2.7528e-48
1.03525e-50
-1.67377e-50
-5.32282e-51
7.07179e-54
-4.77911e-54
-2.83221e-55
4.82484e-57
-1.95329e-57
-1.73603e-57
3.28616e-60
-5.50122e-61
3.52252e-61
2.23589e-63
-1.4449e-63
-1.32394e-64
1.51753e-66
-1.28025e-67
5.87138e-68
1.02882e-69
-6.4301e-70
-2.14836e-70
6.97394e-73
-4.71049e-74
-2.77653e-74
4.71587e-76
4.65441e-77
6.48907e-77
3.1827e-79
2.31309e-79
-4.74012e-83
2.14954e-82
5.78222e-83
-1.2929e-83
1.45126e-85
-2.08457e-86
5.41782e-86
9.78363e-89
2.60206e-89
-4.58255e-96
6.59753e-92
1.94812e-93
-1.21996e-98
4.4399e-95
1.27534e-95
9.01726e-97
2.98196e-98
-2.22573e-99
-3.24529e-99
2.00317e-101
-8.66979e-102
-2.07746e-102
1.34385e-104
1.08601e-104
-2.1462e-105
9.00937e-108
-1.80063e-108
2.00968e-108
6.04095e-111
-7.07053e-112
-5.86165e-112
4.0458e-114
8.62509e-115
1.38946e-115
2.70491e-117
2.61487e-117
-3.2505e-118
1.80926e-120
-4.83216e-121
2.67941e-121
1.20867e-123
7.1897e-124
1.44246e-124
8.07193e-127
-4.8359e-127
1.06396e-126
5.3926e-130
-5.52058e-130
3.72136e-132
3.59607e-133
2.05228e-133
-1.17711e-134
2.39438e-136
1.02614e-136
-5.92777e-140
1.59223e-139
2.37276e-140
4.30234e-141
1.05705e-142
1.75036e-143
3.99643e-144
6.69857e-146
3.68232e-147
3.53189e-147
-1.85778e-149
5.28614e-150
-3.3519e-07
1.84605e-08
2.17499e-08
-4.67921e-08
7.8573e-09
-4.54511e-07
-1.12357e-08
-2.78348e-08
-1.9653e-08
1.25378e-07
-3.26694e-08
3.68451e-08
8.09912e-09
6.76194e-08
-4.58483e-08