/*--------------------------------*- C++ -*----------------------------------*\
| =========                 |                                                 |
| \\      /  F ield         | OpenFOAM: The Open Source CFD Toolbox           |
|  \\    /   O peration     | Version:  5.0                                   |
|   \\  /    A nd           | Web:      www.OpenFOAM.org                      |
|    \\/     M anipulation  |                                                 |
\*---------------------------------------------------------------------------*/
FoamFile
{
    version     2.0;
    format      ascii;
    class       volScalarField;
    location    "3.6";
    object      p_rgh;
}
// * * * * * * * * * * * * * * * * * * * * * * * * * * * * * * * * * * * * * //

dimensions      [1 -1 -2 0 0 0 0];

internalField   nonuniform List<scalar> 
8570
(
99.9671
99.7263
102.273
107.051
116.079
126.201
104.428
96.4498
93.286
90.4141
87.6912
85.0471
82.451
79.9088
77.3944
74.9111
72.4476
70.0165
67.6129
65.2339
62.8576
60.5073
58.1856
55.8561
53.5522
51.2654
48.9873
46.7074
44.4468
42.2114
39.9728
37.7598
35.5767
33.3878
31.189
29.0223
26.9128
24.836
22.7695
20.6971
18.6533
16.6542
14.6597
12.6387
10.6436
8.69822
6.75675
4.80722
2.87965
0.962593
102.351
99.1395
103.318
109.547
114.571
101.981
102.642
97.5502
93.3276
90.5631
87.7992
85.1235
82.5225
79.9539
77.4163
74.9322
72.4558
70.039
67.6384
65.2381
62.8651
60.5092
58.1755
55.856
53.54
51.2525
48.9794
46.71
44.4543
42.2136
39.9881
37.7738
35.5732
33.3762
31.1913
29.0291
26.9065
24.8199
22.751
20.6956
18.6592
16.6588
14.6633
12.6541
10.6507
8.6886
6.74294
4.80404
2.87994
0.962237
106.39
93.1089
110.629
101.39
101.998
102.439
101.794
97.4136
93.324
90.5668
87.8167
85.1262
82.5124
79.9563
77.4239
74.9219
72.469
70.0562
67.6527
65.2357
62.8665
60.5123
58.1687
55.8502
53.5432
51.2455
48.9651
46.7151
44.4646
42.2173
39.9928
37.7727
35.5532
33.3649
31.1967
29.0398
26.905
24.81
22.7479
20.6981
18.6678
16.6569
14.6539
12.6541
10.6606
8.6855
6.73735
4.80534
2.88254
0.962232
105.14
111.668
98.0476
100.494
102.248
101.379
101.022
97.7287
93.1005
90.4453
87.7398
85.1073
82.4881
79.9318
77.4143
74.9213
72.4658
70.0494
67.6307
65.2375
62.8749
60.5113
58.1717
55.8522
53.5545
51.2561
48.9653
46.721
44.4589
42.2067
39.9927
37.7673
35.5478
33.3606
31.2075
29.0627
26.9133
24.8066
22.7485
20.7045
18.6735
16.6465
14.6315
12.6477
10.6687
8.68863
6.73818
4.81292
2.88897
0.957344
95.8701
94.5131
105.473
104.604
102.439
101.305
100.238
97.6939
92.8226
90.2557
87.6055
84.9998
82.4359
79.8944
77.3982
74.9144
72.4706
70.0358
67.6075
65.2356
62.8773
60.5099
58.1758
55.8553
53.5633
51.271
48.9752
46.7157
44.4464
42.1985
39.9864
37.7591
35.5447
33.3594
31.2084
29.0704
26.9232
24.8096
22.7529
20.7148
18.6721
16.6299
14.613
12.6339
10.6651
8.69011
6.74563
4.82734
2.89775
0.955462
112.695
118.799
89.002
103.77
87.0182
99.0903
99.3257
97.5321
92.4601
90.017
87.4441
84.8966
82.3683
79.8598
77.3902
74.9154
72.4734
70.0366
67.6014
65.2284
62.8743
60.5065
58.1764
55.8654
53.5685
51.2845
48.9858
46.711
44.4397
42.1897
39.9785
37.754
35.5384
33.3615
31.2116
29.0725
26.9347
24.8256
22.7575
20.7161
18.6673
16.6176
14.6019
12.6276
10.6616
8.69486
6.7622
4.85095
2.90832
0.958376
92.8463
102.18
96.3624
92.5993
100.3
99.4997
98.9131
96.1038
92.0833
89.7437
87.2936
84.8084
82.3321
79.8403
77.3648
74.9007
72.4651
70.0398
67.603
65.217
62.8616
60.5063
58.1766
55.8751
53.5756
51.2837
48.9923
46.7074
44.4416
42.2028
39.9784
37.7439
35.5322
33.3683
31.2153
29.0674
26.9402
24.8381
22.7592
20.7067
18.659
16.6128
14.6007
12.6253
10.6577
8.69695
6.76849
4.85092
2.91223
0.96756
96.0247
96.2469
96.3115
103.361
93.2024
100.153
97.5644
94.7257
91.8018
89.6042
87.2108
84.7654
82.3084
79.8259
77.3357
74.8989
72.4554
70.0288
67.6183
65.2109
62.8532
60.5026
58.1756
55.8768
53.5758
51.2877
48.9938
46.7042
44.452
42.2081
39.9737
37.7404
35.5366
33.3749
31.2132
29.0563
26.9388
24.8461
22.7634
20.7001
18.6552
16.6229
14.6118
12.6276
10.6557
8.69879
6.76668
4.83997
2.91041
0.971445
99.5197
97.1283
94.3109
96.7247
95.1399
93.7631
95.2999
94.2286
91.8391
89.6775
87.2732
84.8139
82.3305
79.8374
77.3555
74.9032
72.4358
70.0134
67.6114
65.2196
62.8478
60.4973
58.1809
55.8724
53.5773
51.2878
48.9881
46.7034
44.4454
42.2063
39.9608
37.7399
35.5545
33.38
31.2061
29.0449
26.9314
24.8492
22.7671
20.6986
18.6522
16.6321
14.6269
12.6299
10.6511
8.70016
6.75953
4.82917
2.89979
0.972539
98.4701
98.4821
99.1941
100.88
78.3619
87.0856
96.415
95.1368
92.6303
90.0436
87.484
84.9211
82.3722
79.8734
77.3748
74.8992
72.4415
70.0184
67.6102
65.2246
62.8522
60.4997
58.1848
55.862
53.5671
51.2847
48.9936
46.7061
44.4436
42.2072
39.9641
37.7468
35.5706
33.3876
31.1956
29.0333
26.9241
24.8465
22.7703
20.6968
18.6521
16.6437
14.6442
12.6282
10.646
8.70323
6.76246
4.8177
2.88518
0.962928
100.413
99.6766
102.09
106.281
121.455
127.268
104.29
96.4516
93.286
90.4142
87.6913
85.0472
82.4508
79.9089
77.3943
74.911
72.4476
70.0166
67.613
65.2338
62.8576
60.5074
58.1856
55.856
53.5521
51.2655
48.9872
46.7074
44.4467
42.2114
39.9728
37.76
35.5767
33.3877
31.189
29.0222
26.9128
24.836
22.7694
20.6969
18.6532
16.6543
14.66
12.6387
10.6436
8.69826
6.75669
4.8072
2.8796
0.962661
101.739
99.4964
102.646
104.525
115.119
101.595
102.544
97.551
93.328
90.5628
87.7992
85.1235
82.5225
79.9538
77.4163
74.9319
72.4558
70.0391
67.6383
65.238
62.8651
60.5092
58.1754
55.8559
53.54
51.2525
48.9793
46.71
44.4543
42.2137
39.9886
37.7739
35.5731
33.3762
31.1913
29.029
26.9064
24.8199
22.7508
20.6956
18.6592
16.6589
14.6634
12.6538
10.6507
8.68863
6.74284
4.80406
2.88013
0.962189
105.108
103.223
105.288
101.535
100.351
102.247
101.784
97.4136
93.3254
90.5666
87.8167
85.1262
82.5124
79.9563
77.4239
74.9219
72.469
70.0561
67.6528
65.2357
62.8664
60.5122
58.1686
55.8503
53.5432
51.2454
48.9651
46.7151
44.4646
42.2174
39.9925
37.7727
35.5533
33.365
31.1968
29.0398
26.9049
24.81
22.7479
20.698
18.6678
16.6571
14.6539
12.654
10.6606
8.68534
6.7372
4.8054
2.88267
0.962216
105.818
102.259
96.2746
98.1108
104.94
101.348
101.013
97.7184
93.1011
90.445
87.7398
85.1073
82.4881
79.9318
77.4143
74.9213
72.4658
70.0493
67.6306
65.2374
62.8749
60.5113
58.1717
55.8523
53.5544
51.2559
48.9654
46.7211
44.4591
42.2066
39.9925
37.7673
35.5477
33.3606
31.2076
29.0626
26.9132
24.8066
22.7485
20.7044
18.6735
16.6465
14.6315
12.6478
10.6687
8.68862
6.73807
4.8129
2.88895
0.957215
96.2249
101.011
100.588
106.416
100.47
101.62
100.232
97.5624
92.8228
90.2557
87.6055
84.9997
82.4358
79.8944
77.3983
74.9145
72.4706
70.0358
67.6071
65.2357
62.8774
60.5099
58.1758
55.8554
53.5631
51.2711
48.9753
46.7156
44.4459
42.1984
39.9864
37.7591
35.5447
33.3594
31.2084
29.0703
26.9232
24.8096
22.753
20.7148
18.672
16.6298
14.613
12.6344
10.6651
8.69009
6.74556
4.82729
2.89774
0.955511
114.146
111.214
77.7366
101.294
110.315
99.011
99.2682
97.4266
92.4602
90.017
87.444
84.8966
82.3685
79.8597
77.3901
74.9154
72.4734
70.0366
67.6013
65.2283
62.8743
60.5064
58.1764
55.8655
53.5685
51.2845
48.9857
46.7108
44.4397
42.1899
39.9785
37.7539
35.5383
33.3616
31.2116
29.0723
26.9347
24.8256
22.7575
20.7162
18.6673
16.6176
14.6019
12.6276
10.6614
8.69485
6.76218
4.85098
2.90805
0.958337
94.1551
159.292
100.122
91.7152
99.2596
99.4436
98.9254
95.9876
92.0836
89.7436
87.2936
84.8084
82.332
79.8402
77.3647
74.9007
72.4651
70.0396
67.603
65.2171
62.8615
60.5063
58.1766
55.8751
53.5754
51.2837
48.9922
46.7075
44.4416
42.2027
39.9787
37.7438
35.5322
33.3683
31.2153
29.0672
26.9401
24.8381
22.7592
20.7068
18.659
16.6126
14.6007
12.6254
10.6576
8.69693
6.76867
4.85097
2.91215
0.96769
95.1129
98.0685
98.1564
103.119
89.4393
99.564
97.4992
94.7198
91.8024
89.604
87.2108
84.7653
82.3084
79.8259
77.3357
74.8989
72.4557
70.0286
67.6188
65.2108
62.8532
60.5027
58.1756
55.8768
53.5758
51.2879
48.9938
46.7041
44.4519
42.2081
39.9736
37.7403
35.5366
33.3749
31.2132
29.0563
26.9388
24.8461
22.7634
20.7
18.6549
16.6229
14.6118
12.6276
10.6557
8.69876
6.76667
4.83995
2.91049
0.971425
96.9696
96.9499
94.2058
96.6896
94.8778
93.259
95.32
94.2264
91.8395
89.6773
87.2732
84.8139
82.3305
79.8373
77.3555
74.9034
72.4359
70.0134
67.6114
65.2196
62.8478
60.4973
58.1809
55.8724
53.5772
51.2878
48.988
46.7034
44.4454
42.2064
39.9609
37.7399
35.555
33.38
31.2059
29.0449
26.9314
24.8491
22.767
20.6986
18.6522
16.6322
14.6268
12.6298
10.6511
8.70012
6.75948
4.82914
2.89986
0.972538
98.3513
97.636
98.0025
98.8082
69.5507
84.7387
96.2981
95.1373
92.63
90.0436
87.4841
84.9208
82.372
79.8734
77.3748
74.8995
72.4415
70.0181
67.6102
65.2246
62.8521
60.4997
58.1848
55.862
53.5672
51.2846
48.9934
46.7061
44.4437
42.2071
39.964
37.7468
35.5707
33.3875
31.1952
29.0333
26.9241
24.8465
22.7703
20.6968
18.6521
16.6437
14.6442
12.6282
10.646
8.70325
6.76232
4.81768
2.88526
0.962914
101.47
100.112
103.356
123.586
121.416
115.532
104.301
96.4501
93.2859
90.414
87.6913
85.0472
82.4506
79.9091
77.3944
74.9106
72.4476
70.0165
67.6133
65.2336
62.8575
60.5075
58.1855
55.8558
53.5521
51.2656
48.987
46.7074
44.4464
42.2113
39.9728
37.76
35.5767
33.3874
31.1889
29.0222
26.9127
24.8359
22.7694
20.6968
18.6531
16.6543
14.66
12.6388
10.6436
8.69823
6.75657
4.80712
2.8795
0.962603
102.586
95.8337
116.918
127.786
113.812
99.2579
102.567
97.5516
93.3274
90.5629
87.7991
85.1234
82.5224
79.9537
77.4162
74.9315
72.4557
70.0392
67.638
65.2378
62.8657
60.5093
58.1749
55.8558
53.54
51.2524
48.9791
46.7099
44.4544
42.2138
39.9886
37.7739
35.573
33.376
31.1913
29.0289
26.9064
24.8203
22.7507
20.6955
18.6592
16.6589
14.6632
12.653
10.6508
8.68862
6.74276
4.80399
2.88021
0.961997
104.319
88.3171
101.258
102.336
106.244
102.929
101.78
97.4155
93.3252
90.5667
87.8165
85.1261
82.5123
79.9562
77.4238
74.9218
72.4689
70.0559
67.6528
65.2356
62.8661
60.5122
58.1685
55.8508
53.5431
51.2452
48.965
46.715
44.4646
42.2173
39.9924
37.7723
35.5534
33.3651
31.1968
29.0398
26.9047
24.81
22.7478
20.6979
18.6678
16.6572
14.6539
12.6537
10.6609
8.68525
6.7371
4.8054
2.88261
0.96199
101.711
98.6857
95.342
97.7121
98.7608
101.076
101.009
97.7225
93.1004
90.4448
87.7397
85.1072
82.488
79.9317
77.4142
74.9212
72.4657
70.0491
67.6306
65.2372
62.8751
60.5112
58.1716
55.8524
53.5541
51.2557
48.9655
46.721
44.4591
42.2065
39.9924
37.7672
35.5477
33.3605
31.2076
29.0625
26.9131
24.8066
22.7486
20.7044
18.6734
16.6463
14.6314
12.6477
10.6687
8.68854
6.73797
4.81285
2.88887
0.956884
101.533
102.76
119.392
104.977
102.66
100.639
100.23
97.5735
92.822
90.2561
87.6055
84.9995
82.4355
79.8943
77.3983
74.9144
72.4705
70.0357
67.607
65.2357
62.8774
60.5094
58.1758
55.8554
53.5628
51.2711
48.9754
46.7155
44.4457
42.1983
39.9864
37.7591
35.5447
33.3593
31.2083
29.0703
26.9234
24.8096
22.7529
20.7151
18.6719
16.6296
14.6132
12.6344
10.665
8.69002
6.74571
4.82721
2.89772
0.955422
102.769
113.716
164.808
101.832
106.141
99.0737
99.2749
97.4366
92.4595
90.0172
87.4438
84.8965
82.3686
79.8597
77.39
74.9153
72.4733
70.0367
67.6011
65.2281
62.8744
60.5063
58.1762
55.8654
53.5685
51.2844
48.9856
46.7107
44.4396
42.1904
39.9786
37.7536
35.5381
33.3624
31.2117
29.0722
26.9346
24.8255
22.7574
20.7162
18.6669
16.6175
14.6018
12.6275
10.6613
8.69477
6.76219
4.85096
2.90762
0.958309
91.2482
119.436
99.0419
86.2495
108.812
99.5179
98.8573
95.9931
92.0833
89.7436
87.2934
84.8083
82.3319
79.8402
77.3647
74.9006
72.465
70.0395
67.603
65.2171
62.8617
60.5062
58.1766
55.875
53.5752
51.2836
48.9921
46.7077
44.442
42.2028
39.9786
37.7436
35.5321
33.3683
31.2151
29.067
26.9401
24.838
22.7592
20.7068
18.659
16.6125
14.6007
12.6254
10.6574
8.69686
6.7687
4.85079
2.91169
0.967638
96.2261
96.8275
99.1383
103.204
102.172
99.4233
97.5327
94.7206
91.8022
89.6041
87.2107
84.7652
82.3083
79.8258
77.3356
74.8988
72.4559
70.0283
67.6189
65.2109
62.8531
60.5027
58.1758
55.8767
53.5756
51.2881
48.9937
46.704
44.4516
42.2081
39.9736
37.7402
35.5365
33.3748
31.2131
29.0563
26.9387
24.8459
22.7633
20.7
18.6548
16.623
14.6118
12.6276
10.6556
8.6987
6.76661
4.8399
2.91044
0.971449
96.5162
97.3611
99.7116
99.5681
94.0512
93.8313
95.3199
94.2253
91.8395
89.6774
87.2731
84.8138
82.3304
79.8373
77.3554
74.9036
72.4358
70.0133
67.6114
65.2196
62.8477
60.4972
58.1809
55.8723
53.5771
51.2877
48.9879
46.7033
44.4459
42.2065
39.9607
37.7398
35.5555
33.3799
31.2057
29.0449
26.9314
24.8489
22.7669
20.6985
18.6523
16.6323
14.6267
12.6296
10.651
8.70003
6.75937
4.82906
2.8998
0.972443
100.361
97.7036
98.6681
99.0469
52.0268
84.1362
96.3082
95.1371
92.6302
90.0436
87.4842
84.9206
82.3718
79.8734
77.3748
74.8997
72.4414
70.018
67.6101
65.2245
62.8518
60.4995
58.1847
55.862
53.5671
51.2846
48.9933
46.7061
44.4437
42.207
39.9635
37.747
35.571
33.3874
31.1949
29.0335
26.9241
24.8464
22.7702
20.6967
18.652
16.6437
14.6441
12.628
10.6459
8.70321
6.76212
4.81759
2.88528
0.962844
105.216
104.824
102.43
125.296
105.231
104.973
102.447
102.654
102.533
102.213
102.112
102.671
102.928
102.212
101.955
101.324
101.326
102.448
101.951
101.356
101.321
101.023
100.245
100.628
101.083
101.004
100.328
100.62
100.431
99.8199
99.4539
101.549
100.458
99.8765
99.4195
99.2547
99.7021
98.9887
99.1377
99.255
99.7413
98.9852
98.8341
99.5736
98.1436
99.4461
98.9826
98.9939
98.1539
97.7895
95.6238
95.6382
99.6934
97.8094
95.6298
95.6384
94.9186
87.6139
93.7994
93.3188
94.9026
87.2561
93.8204
95.1263
126.898
105.071
83.4347
95.1765
126.519
105.056
105.212
105.079
102.435
114.99
105.174
99.4711
102.427
102.672
103.705
102.206
100.261
102.664
105.315
102.211
101.973
101.414
101.353
103.502
101.949
101.535
101.259
101.019
100.548
100.593
101.106
101.005
102.596
100.608
100.442
99.9291
99.3484
101.05
100.429
99.5573
99.428
99.2494
99.7222
99.0811
98.9967
99.2909
99.7208
98.9882
99.167
98.7906
98.1314
99.5227
98.8496
98.6361
98.1206
97.7824
95.5866
95.6354
99.4558
97.7854
95.7118
95.6347
94.9171
86.7685
93.822
94.0103
94.9068
86.5987
93.8272
95.1856
126.706
105.085
83.7162
95.2009
124.977
105.062
105.18
99.9307
102.425
116.009
105.182
100.263
102.427
102.659
103.3
102.212
109.329
102.639
103.933
102.209
101.962
101.532
101.354
103.145
101.97
101.569
101.346
101.027
102.582
100.597
101.052
101.036
103.122
100.595
100.416
100.542
99.3602
100.502
100.441
98.7655
99.4743
99.2759
99.7004
98.9989
99.672
99.31
99.7115
98.9851
98.8801
98.6583
98.1503
99.618
98.7322
98.7865
98.1344
97.7896
95.3059
95.6506
99.5608
97.7907
95.3208
95.6393
94.9329
87.1518
93.8278
93.74
94.9171
86.0928
93.8059
95.1982
124.67
105.06
93.9558
95.1652
124.041
105.077
124.967
114.373
90.8617
123.209
122.373
119.394
94.3014
107.194
112.416
116.848
124.566
116.442
107.305
112.367
99.5015
102.734
99.4205
104.292
99.5123
102.629
99.4301
108.468
107.476
106.207
110.853
104.379
103.433
103.723
103.277
102.68
110.611
102.49
102.68
110.961
103.267
99.4932
101.989
98.9917
102.552
99.4912
101.994
99.0025
104.663
104.705
102.071
99.9936
103.198
105.142
102.736
102.047
102.24
105.11
102.621
102.256
105.716
102.249
98.8297
101.077
98.8409
101.788
98.834
101.02
98.7261
100.091
104.407
99.3071
106.051
100.051
106.355
99.8086
103.117
100.969
102.326
101.509
100.968
102.192
104.103
99.1959
100.734
99.8148
101.006
99.0795
100.687
99.8455
104.175
98.6531
102.299
101.085
98.2725
98.5778
101.034
100.307
100.409
102.664
101.294
100.4
102.616
100.351
99.8757
99.6648
99.3209
100.244
99.9169
99.6367
99.3577
103.72
99.3983
100.89
110.552
112.366
99.3004
101.202
100.933
99.3586
102.404
99.0948
99.3227
99.577
100.052
99.1509
99.0507
98.5954
99.2732
99.1961
99.0243
98.6295
97.9536
101.562
101.422
99.3207
98.1386
96.5021
99.6885
98.7544
99.2938
99.3019
99.5054
99.2908
99.2823
98.8216
98.1432
98.0172
96.5592
98.873
98.1769
98.0152
96.4432
101.721
96.4244
99.6866
93.0203
101.969
96.3264
105.779
98.3303
99.1174
102.561
99.6448
98.9531
99.6049
98.962
96.0185
95.8089
94.9397
97.5332
95.9198
95.8101
94.9424
102.828
91.3416
88.6213
95.0236
97.5476
90.7838
89.9717
93.0896
93.9295
91.4082
93.6265
93.9319
94.2426
92.8076
94.8009
94.9617
95.0827
95.3185
94.8076
94.9845
95.0812
54.7908
151.978
161.934
61.1196
114.903
211.038
173.842
92.3869
88.8154
74.9926
85.1869
88.8286
74.2514
92.3402
96.3226
103.316
98.3477
96.2902
96.3307
103.106
98.3584
124.753
118.72
101.179
123.918
136.641
157.454
97.374
106.917
111.978
127.502
150.173
107.006
118.733
111.733
99.5109
102.623
99.4268
104.293
99.5106
102.655
99.4257
106.385
103.445
103.745
110.579
106.414
106.74
104.105
103.175
102.784
118.368
101.716
103.216
102.807
112.698
99.4896
101.996
99.0005
102.555
99.4893
101.981
98.9994
103.066
104.04
102.766
105.963
102.82
107.533
102.807
102.439
102.266
106.057
102.285
102.295
102.266
105.075
98.8302
101.049
98.7171
101.778
98.8297
101.015
98.7173
100.161
119.959
104.267
97.983
99.0047
111.443
105.868
100.76
100.927
102.034
103.095
103.572
101.04
101.811
99.0649
100.701
99.8507
101.015
99.0631
100.676
99.8525
101.214
98.7519
102.703
103.164
100.598
99.4108
104.904
100.25
100.31
103.117
101.704
100.21
100.303
103.388
99.925
99.6658
99.3587
100.234
99.9248
99.6546
99.3608
112.35
99.3368
100.898
104.301
97.4742
100.583
100.783
99.146
99.21
97.911
99.0768
99.104
99.1883
97.4138
99.2056
99.0291
98.6362
99.3113
99.1856
99.0581
98.6319
98.1378
99.4873
99.8523
99.0293
100.392
97.9639
99.7685
98.8657
99.2992
99.205
99.4728
98.8361
99.3102
99.2098
98.178
98.0178
96.4324
98.8379
98.1798
98.0231
96.4294
102.617
95.8418
104.411
87.0435
103.328
98.0589
90.147
98.3404
98.8448
99.7121
99.5272
98.3505
98.8656
99.6633
95.9109
95.808
94.9384
97.5084
95.9111
95.8067
94.9381
97.4977
91.0873
80.5628
93.6372
97.7723
91.1165
82.6833
94.4572
93.9531
95.2585
93.5131
92.7273
93.9713
96.3976
94.805
94.9899
95.0814
95.3214
94.8053
94.992
95.0815
111.918
92.6895
173.878
51.0495
90.9906
106.291
154.251
93.7333
89.2175
91.1198
85.8406
93.3681
89.6565
94.0927
96.3286
103.107
98.3574
96.3132
96.3283
103.101
98.3579
128.303
155.124
98.4625
127.789
134.22
157.467
101.157
106.515
111.38
111.579
115.885
106.371
114.909
111.319
99.5117
102.668
99.4279
104.404
99.5009
102.763
99.4189
104.033
104.549
110.336
112.662
106.882
105.327
104.131
103.072
102.797
105.196
114.762
102.919
102.977
133.533
99.4905
101.979
99.0017
102.637
99.4918
101.977
98.9914
101.772
106.25
104.159
103.614
101.72
106.279
106.975
102.26
102.344
105.257
103.536
102.24
102.384
104.627
98.8338
101.052
98.7247
101.783
98.8288
101.084
98.8385
99.191
101.595
101.752
100.359
100.21
105.638
105.056
101.478
100.909
102.53
101.094
103.114
100.882
102.418
99.0742
100.704
99.8441
101.041
99.1995
100.708
99.8159
100.791
99.4459
106.001
101.785
101.586
99.7762
85.3091
100.26
100.291
97.0918
100.451
100.292
100.296
97.1138
99.916
99.6375
99.3633
100.233
99.876
99.6918
99.3214
99.8145
102.708
101.059
105.917
100.307
103.164
100.974
99.1064
99.109
99.9436
100.912
99.0766
99.0997
99.8906
99.1844
99.028
98.6274
99.3066
99.1524
99.0417
98.5949
99.7814
98.6483
99.7235
103.858
99.8198
102.265
99.0829
98.9303
99.3174
99.3613
99.5358
98.9252
99.3106
99.3588
98.1728
98.0189
96.4426
98.8438
98.1431
98.0191
96.553
104.314
96.116
94.0178
99.0713
104.913
107.055
93.0335
98.2235
98.9106
99.7623
99.5213
98.2447
98.8796
99.7926
95.9179
95.8079
94.942
97.5568
96.0162
95.8057
94.9393
97.1985
93.0086
83.2512
93.8236
98.949
97.9124
90.1782
93.4559
94.0605
96.7254
93.6832
94.9909
94.0129
97.7913
94.8081
94.9881
95.0814
95.3009
94.8012
94.9578
95.0835
93.3684
99.6267
151.106
64.3387
283.434
94.8384
146.908
94.8644
90.8521
90.2018
93.2324
94.6938
90.9539
89.4083
96.33
103.149
98.3596
96.4259
96.322
103.301
98.3485
106.592
108.481
104.567
105.227
104.574
106.595
108.474
102.362
106.332
101.627
104.783
105.668
101.608
102.391
103.825
103.072
102.783
102.438
103.081
102.782
103.828
107.085
124.8
112.158
116.718
116.537
107.009
112.281
106.585
105.241
108.452
104.555
104.586
106.574
108.463
102.345
104.873
105.866
101.543
105.637
101.574
102.297
103.814
102.448
103.074
102.783
103.081
102.781
103.789
102.924
102.929
102.389
102.663
102.959
102.391
102.965
103.597
117.439
102.948
102.737
110.039
103.094
104.612
102.93
102.506
102.61
102.211
102.51
102.607
103.004
103.294
102.577
102.713
110.715
102.687
110.469
103.266
102.917
102.668
102.908
102.382
102.894
102.386
102.852
103.755
102.979
110.531
103.252
110.257
102.952
103.944
102.974
102.217
102.509
102.607
102.51
102.594
103.055
101.937
102.184
101.805
101.928
102.12
101.805
101.996
101.633
107.594
101.885
101.341
107.702
101.773
101.483
101.989
101.793
101.701
101.314
101.849
101.641
101.981
102.16
102.351
102.252
105.645
102.264
105.228
102.499
101.877
101.992
102.122
101.8
102.15
101.838
101.858
102.35
101.396
102.65
101.745
106.874
101.753
101.814
101.995
101.296
101.689
101.659
101.715
101.65
101.992
102.017
101.173
100.879
101.008
101.109
100.893
102.165
100.21
103.996
100.92
100.123
103.504
100.926
100.642
101.151
100.831
100.852
100.622
100.826
100.846
101.156
102.98
101.21
100.912
101.557
101.004
102.408
103.25
102.256
101.018
101.104
100.898
101.107
100.9
102.597
100.279
100.318
105.235
100.956
105.078
100.938
100.278
101.153
100.618
100.812
100.87
100.826
100.853
101.144
100.322
100.65
100.129
100.429
100.636
100.123
100.318
99.7916
99.6859
99.4933
99.8311
99.6846
99.4397
99.7681
99.7834
99.8006
99.4997
99.433
99.7842
99.4993
99.8429
100.342
101.528
100.35
102.926
100.381
102.791
100.251
100.326
100.482
100.64
100.12
100.661
100.134
100.211
99.7451
99.8469
99.6498
99.3771
99.6782
99.5272
99.7164
99.7376
99.4735
99.746
99.4651
99.9258
99.457
99.7943
99.1567
99.3442
99.1249
99.246
99.3594
99.1128
99.1473
99.2909
99.6499
99.299
99.6768
99.6329
99.3014
99.3179
99.1901
99.0966
99.1459
98.9879
99.0574
99.1444
99.1843
99.2494
99.1118
99.2712
98.7389
99.2975
98.7374
99.0396
99.1586
99.2815
99.3439
99.1206
99.3251
99.1193
99.1668
99.3086
99.7044
99.6774
99.295
99.6477
99.2941
99.3046
99.1844
98.994
99.0792
99.1523
99.0497
99.1539
99.1801
98.7259
98.9383
98.5613
98.9513
98.9484
98.5653
98.7232
98.6104
99.2759
98.5537
98.6275
98.6856
98.5509
98.7195
98.544
98.473
98.3037
98.1515
98.4781
98.3066
98.5867
98.7789
99.4773
99.2988
99.2563
99.2929
99.2999
98.8047
98.7331
98.8815
98.9211
98.5398
98.9503
98.545
98.7365
98.614
98.6109
98.8252
98.539
98.8479
98.542
98.631
98.5362
98.1566
98.4881
98.2977
98.5386
98.3028
98.5374
97.7737
98.2887
97.3457
97.7857
98.258
97.3641
97.7461
96.9881
97.183
95.6695
95.6221
97.0074
95.6373
97.0738
96.6051
96.3885
95.479
95.6393
96.3778
95.4889
96.6245
98.3134
99.7046
98.8374
99.6653
98.8809
99.5834
98.3465
97.694
97.7863
98.2934
97.2904
98.2629
97.3226
97.6891
96.9718
95.6382
96.9143
95.5542
96.9714
95.6165
96.9572
96.6024
95.6413
96.3759
95.4712
96.3917
95.491
96.5851
93.5587
94.4018
94.2858
94.898
94.4061
94.2871
93.5765
88.8762
96.4137
89.2731
87.8967
100.671
88.986
88.7909
92.25
93.7233
92.2281
93.8151
93.7268
92.2247
92.3012
92.7451
93.3252
93.9452
94.2255
93.9424
94.1933
92.7511
93.6367
94.9165
94.4001
94.2937
94.414
94.2901
93.562
88.9692
87.253
88.48
89.0408
87.495
88.9992
89.2297
92.1861
93.8191
93.7403
92.2223
93.7318
92.244
92.1832
96.3792
93.4992
97.4125
95.155
93.5084
97.4415
96.3627
101.228
106.448
112.718
126.845
105.661
101.241
112.812
101.302
100.796
107.704
105.061
100.813
101.297
107.695
92.5838
105.505
89.0094
90.0825
88.86
95.7005
92.938
96.4069
95.1702
93.5689
97.4713
93.534
97.4568
96.4431
101.233
131.87
104.634
112.47
107.365
101.207
112.643
101.303
105.069
100.826
107.696
100.826
101.297
107.698
106.582
108.445
104.551
105.189
106.574
104.562
108.456
101.966
111.523
101.67
130.908
102.046
105.272
101.736
103.741
103.069
102.778
102.433
103.763
103.056
102.759
106.986
114.521
111.493
111.02
111.043
106.524
111.583
106.593
105.175
108.461
104.548
104.542
106.611
108.457
102.144
99.4372
105.47
101.172
107.075
101.787
102.23
103.725
102.432
103.053
102.77
103.055
102.738
103.724
102.794
102.898
102.377
102.67
102.822
102.907
102.374
111.616
110.47
102.91
104.455
103.986
111.45
102.961
103.045
102.505
102.595
102.207
103.044
102.505
102.574
103.316
101.534
103.328
115.029
102.866
111.659
102.996
102.763
102.668
102.948
102.372
102.918
102.374
102.756
105.346
109.312
110.765
102.826
110.911
102.985
104.967
103.045
102.219
102.52
102.613
102.512
102.588
103.03
101.87
102.158
101.82
101.942
101.873
102.137
101.799
101.561
103.158
101.745
101.463
102.012
102.975
101.735
101.938
101.587
101.668
101.356
102.14
101.646
101.675
102.327
102.307
102.318
105.035
102.27
105.758
102.364
101.853
101.965
102.111
101.779
102.134
101.811
101.804
101.556
101.552
102.15
101.7
102.312
101.716
101.607
102.064
101.315
101.655
101.66
101.624
101.683
102.01
102.563
101.101
100.901
101.005
101.449
101.109
100.889
101.165
104.976
100.987
104.113
101.122
104.662
101.024
101.083
100.815
100.875
100.601
101.112
100.854
100.862
100.89
101.113
100.942
101.973
100.98
101.735
102.577
101.958
101.032
101.115
100.847
101.112
100.878
101.419
102.043
101.389
106.842
101.086
110.299
101.049
102.018
101.575
100.607
100.829
100.905
100.834
100.886
101.437
100.214
100.629
100.153
100.422
100.202
100.625
100.094
99.7719
99.6157
99.3506
99.9851
99.7481
99.5667
99.3151
99.7596
99.7963
99.4344
99.4036
99.7804
99.7648
99.4241
100.351
106.596
100.366
104.05
100.447
103.869
100.3
100.19
100.467
100.598
100.119
100.664
100.13
100.148
99.7225
99.6497
99.6034
99.3494
99.6133
99.2706
99.7229
99.7603
99.5336
99.7444
99.4279
99.7993
99.4191
99.7733
99.1234
99.3236
99.106
99.2702
99.1295
99.313
99.1387
99.3139
99.5919
99.2975
99.6819
99.3088
99.5994
99.3006
99.177
99.0607
99.1528
99.0729
99.174
99.0624
99.1478
99.1074
99.3298
99.3811
100.217
99.2494
98.2696
99.226
99.1189
99.2586
99.3116
99.106
99.3198
99.1292
99.1263
99.3216
99.6924
99.7359
99.3136
99.625
99.3017
99.3352
99.1844
98.9915
99.0562
99.1469
99.028
99.1474
99.1723
98.7467
98.9111
98.6277
98.9594
98.7426
98.9308
98.5913
98.6958
98.9017
98.5288
98.7726
98.6776
98.8572
98.5303
98.5404
98.4525
98.2962
98.1305
98.5462
98.4626
98.3001
98.8983
99.5199
99.3175
99.2931
99.3074
99.2549
98.912
98.7507
98.8079
98.9274
98.5396
98.9647
98.5431
98.7593
98.7033
98.711
98.7259
98.5495
98.724
98.5416
98.7097
98.5521
98.1485
98.4658
98.3001
98.4759
98.298
98.5471
97.6574
98.3001
97.3011
97.784
97.6698
98.3028
97.3188
96.9307
96.895
95.5296
95.2895
96.9458
96.8655
95.6111
96.5549
96.3734
95.478
95.6438
96.5732
96.3747
95.4994
98.3173
99.4942
98.8929
99.7235
98.8974
99.6793
98.2845
97.6557
97.7918
98.3015
97.3405
98.3137
97.3337
97.6558
96.949
95.3361
96.9857
95.5369
96.9911
95.52
96.8817
96.543
95.6404
96.3695
95.4987
96.385
95.5073
96.5442
93.5769
94.4056
94.2982
94.9073
93.6295
94.4226
94.301
89.6317
88.2913
89.1805
86.6614
89.4588
91.2421
89.2954
92.2232
93.7503
92.2164
93.8245
92.2524
93.7627
92.224
93.3085
93.4221
94.2115
96.038
93.9425
97.0106
92.4943
93.5983
94.9232
94.4267
94.3027
94.423
94.3028
93.5755
101.456
86.5108
95.2282
89.1286
95.6411
89.2704
93.44
93.4838
93.8272
93.795
92.2186
93.778
92.2141
92.6896
96.5388
93.6133
97.4836
95.1927
96.4901
93.6701
97.4945
100.951
106.505
112.418
136.578
101.108
101.956
113.061
101.295
100.831
107.692
105.087
101.297
100.84
107.684
94.1161
83.8414
90.7358
90.2276
89.9525
90.3995
94.4439
96.5828
95.1968
93.7937
97.4982
93.7306
97.4984
96.6192
101.282
125.478
102.82
112.521
111.457
100.904
112.629
101.296
105.133
100.848
107.698
100.852
101.303
107.702
106.652
108.466
104.634
105.177
106.629
104.627
108.472
101.808
105.322
101.282
100.214
102
105.408
101.257
103.735
103.056
102.75
102.424
103.738
102.983
102.762
106.636
115.91
111.271
114.105
113.43
107.739
111.277
106.653
105.175
108.476
104.553
104.576
106.662
108.477
102.084
100.248
105.111
101.466
105.878
101.261
101.792
103.781
102.423
103.096
102.771
103
102.767
103.786
102.691
102.911
102.368
102.654
102.695
102.956
102.365
105.054
111.207
102.855
103.492
105.063
105.611
102.91
102.947
102.528
102.652
102.211
102.938
102.529
102.65
102.8
114.319
103.099
92.344
103.24
87.3214
103.034
102.746
102.651
103.017
102.366
102.95
102.365
102.659
105.291
104.007
106.776
103.069
98.3785
102.967
105.192
102.972
102.209
102.531
102.703
102.53
102.721
102.957
101.781
102.104
101.839
101.939
101.779
102.108
101.79
101.387
102.029
101.74
101.56
101.649
103.322
101.726
102.124
101.593
101.643
101.324
102.009
101.613
101.637
102.018
102.288
102.414
104.947
102.376
104.381
102.04
101.801
101.938
102.138
101.791
102.113
101.788
101.797
101.546
101.549
102.452
101.715
102.71
101.724
101.591
102.01
101.309
101.736
101.692
101.791
101.634
102.078
102.082
101.115
100.835
101.009
101.269
101.112
100.847
102.175
101.612
101.09
103.384
103.025
102.007
101.118
101.35
100.858
100.934
100.624
101.314
100.85
100.921
103.799
101.055
100.906
106.26
100.964
102.512
101.722
101.292
101.009
101.145
100.851
101.101
100.862
101.118
102.721
102.995
106.562
101.153
102.46
101.121
102.715
101.348
100.597
100.853
100.955
100.849
100.926
101.337
100.117
100.621
100.115
100.393
100.132
100.596
100.129
99.7566
99.6134
99.2264
98.0989
99.7334
99.6824
99.1693
99.7945
99.75
99.4591
99.385
99.7744
99.7492
99.4357
100.247
100.443
100.309
97.5565
100.309
97.1196
100.258
100.11
100.427
100.598
100.118
100.603
100.118
100.144
99.7488
98.732
99.592
99.1342
99.6077
99.1463
99.7298
99.8742
99.4406
99.7552
99.4218
99.747
99.4249
99.8517
99.1308
99.3292
99.1043
99.2546
99.13
99.3305
99.1324
99.3155
99.5183
99.3108
99.7169
99.3194
99.6068
99.3036
99.1994
99.066
99.1491
98.9953
99.1724
99.0636
99.1416
99.3113
99.6955
99.1013
99.7441
99.101
100.677
99.1704
99.1297
99.2842
99.3223
99.1313
99.3142
99.1128
99.1251
99.3133
99.7161
99.7219
99.3135
99.8378
99.3167
99.3519
99.1966
98.9866
99.0829
99.1426
99.0629
99.1404
99.2192
98.7682
98.9287
98.6064
98.8543
98.7702
98.9461
98.5744
98.6341
99.7024
98.5529
98.6325
98.6895
99.1392
98.5561
98.5637
98.4449
98.3013
98.1518
98.553
98.4576
98.2984
98.9274
99.6294
99.3648
99.4433
99.3216
99.4898
98.9342
98.777
98.8617
98.9495
98.572
98.9663
98.5678
98.7763
98.6983
98.7934
99.0118
98.5493
99.02
98.5531
98.7009
98.5647
98.1312
98.4553
98.301
98.4676
98.301
98.5804
97.6653
98.2958
97.3467
97.8011
97.6594
98.255
97.3448
96.8061
96.9953
95.5372
95.2871
96.9324
96.9763
95.5562
96.5493
96.3685
95.5001
95.6475
96.5396
96.3842
95.5304
98.2622
99.4849
99.0308
99.8423
98.8812
99.8085