/*--------------------------------*- C++ -*----------------------------------*\
| =========                 |                                                 |
| \\      /  F ield         | OpenFOAM: The Open Source CFD Toolbox           |
|  \\    /   O peration     | Version:  5.0                                   |
|   \\  /    A nd           | Web:      www.OpenFOAM.org                      |
|    \\/     M anipulation  |                                                 |
\*---------------------------------------------------------------------------*/
FoamFile
{
    version     2.0;
    format      ascii;
    class       surfaceScalarField;
    location    "3.6";
    object      phi;
}
// * * * * * * * * * * * * * * * * * * * * * * * * * * * * * * * * * * * * * //

dimensions      [0 3 -1 0 0 0 0];

internalField   nonuniform List<scalar> 
25642
(
3.83109e-09
3.98536e-10
-5.48884e-09
3.41959e-10
3.43425e-09
-4.39878e-10
-9.6642e-10
-7.64759e-11
-1.30166e-09
8.19692e-10
1.86878e-09
1.28876e-09
-2.71499e-09
1.63525e-09
2.60092e-09
-1.66135e-10
1.09004e-10
-2.035e-09
-7.08555e-10
-1.34208e-09
1.70139e-09
-5.06763e-09
4.43827e-09
3.63166e-09
-6.53486e-10
9.82624e-09
-7.71663e-09
1.35282e-09
6.33336e-10
1.20464e-09
-2.41009e-09
-1.42147e-10
1.02593e-11
7.56861e-11
5.64669e-11
1.55064e-09
3.57706e-12
-3.80865e-11
-3.11609e-10
-2.94893e-10
-5.10121e-10
-4.86396e-10
-4.00171e-12
8.61271e-12
-5.83281e-12
1.47165e-09
3.8106e-11
-2.84927e-12
1.44693e-09
-3.10832e-14
-2.20359e-13
1.43271e-09
-6.83614e-13
-2.59795e-13
1.42668e-09
-2.17271e-12
-1.92432e-13
1.42407e-09
-1.80877e-12
-2.44104e-14
1.42078e-09
-1.68153e-12
-2.75813e-13
1.41973e-09
-1.09709e-12
2.90697e-13
1.41922e-09
-5.42925e-13
5.24852e-13
1.41936e-09
-5.44019e-13
-1.56877e-14
1.4183e-09
-4.90328e-13
-8.61723e-13
1.41823e-09
5.074e-14
-1.8258e-13
1.41875e-09
1.94916e-14
3.92559e-13
1.41858e-09
-1.06192e-13
1.11098e-13
1.41856e-09
9.40673e-14
-4.29796e-13
1.41865e-09
-1.04827e-12
9.44818e-13
1.41856e-09
-9.80762e-14
7.82188e-14
1.41934e-09
-1.85856e-12
1.24412e-12
1.41851e-09
5.32304e-14
-9.5284e-13
1.41871e-09
1.14605e-15
8.47122e-14
1.4188e-09
-6.33367e-16
4.61302e-14
1.41872e-09
-2.43326e-13
-9.04769e-13
1.41887e-09
3.43368e-13
1.87699e-13
1.41807e-09
-1.03516e-12
3.88439e-12
1.41827e-09
-9.04935e-13
2.94397e-12
1.41789e-09
-1.39799e-13
1.88075e-13
1.41931e-09
-3.20415e-12
1.80211e-12
1.41922e-09
1.55718e-13
3.25132e-14
1.41802e-09
-2.79253e-14
-1.80841e-12
1.41814e-09
3.12958e-13
-8.01279e-14
1.41774e-09
5.89106e-13
-4.28348e-13
1.4195e-09
-2.72205e-12
5.49773e-13
1.41874e-09
5.19852e-13
8.99803e-14
1.41869e-09
6.07134e-14
9.68414e-15
1.41851e-09
-6.7722e-14
-9.33531e-15
1.41924e-09
-3.36752e-13
-9.92294e-13
1.41826e-09
2.74962e-12
-1.3467e-12
1.41812e-09
-3.57282e-13
-5.65979e-14
1.41792e-09
2.69512e-13
1.61903e-14
1.41905e-09
-1.039e-12
-2.80725e-13
1.41873e-09
2.11966e-13
1.40508e-13
1.41816e-09
-4.53077e-13
8.15204e-13
1.30317e-12
-1.18054e-12
5.10669e-09
-5.50577e-10
-3.96647e-09
2.11195e-09
5.03415e-09
-1.68667e-09
1.36493e-09
-1.62715e-09
9.11482e-10
-1.55778e-09
2.53684e-10
-1.97713e-09
-1.17683e-09
-1.6506e-09
1.03525e-09
3.05888e-10
-1.54738e-09
6.28702e-10
-4.22458e-10
1.12687e-08
-3.8264e-10
-5.7779e-09
1.04912e-09
-2.37657e-10
-3.08188e-09
-1.00014e-09
-1.83754e-09
3.66061e-09
2.43398e-09
3.04233e-09
-1.00704e-08
9.33502e-10
1.58284e-12
-5.17099e-10
2.93291e-10
-6.55125e-10
8.77398e-10
-1.70727e-10
2.85426e-12
3.40266e-12
1.22533e-10
4.19369e-11
-2.15376e-10
2.15314e-10
6.58435e-12
-2.92147e-12
1.43808e-09
1.73522e-11
-2.47468e-11
-2.64051e-10
-2.65168e-10
-4.31604e-10
-4.31748e-10
1.43452e-09
5.40157e-12
-1.82254e-12
1.42985e-09
3.57267e-12
4.83373e-13
1.42616e-09
1.67243e-12
-1.07111e-13
1.42349e-09
8.92462e-13
3.19724e-15
1.42155e-09
3.20192e-13
-3.30357e-14
1.42031e-09
1.94763e-13
-2.25216e-14
1.41964e-09
3.90386e-13
-2.36218e-13
1.419e-09
2.19385e-13
-1.08569e-13
1.4189e-09
-3.72215e-13
1.34798e-15
1.4191e-09
-4.28792e-13
2.87035e-13
1.41883e-09
1.16952e-13
1.8473e-13
1.41863e-09
-1.69305e-13
2.72127e-13
1.41846e-09
2.05866e-13
6.35738e-14
1.41856e-09
5.41131e-13
-1.68108e-12
1.41913e-09
-1.44536e-12
7.83571e-13
1.41839e-09
-4.1049e-14
-1.07198e-12
1.41839e-09
3.47492e-13
-2.91069e-13
1.41899e-09
-6.31521e-13
3.86946e-14
1.41889e-09
1.90881e-13
-9.21103e-14
1.41815e-09
-9.50357e-13
1.45147e-12
1.41777e-09
3.15193e-12
-2.43526e-12
1.41835e-09
2.63598e-13
-1.8769e-12
1.41861e-09
5.79167e-13
-1.74517e-12
1.41978e-09
-3.37486e-12
2.05123e-12
1.4189e-09
-2.66115e-12
3.31533e-13
1.41888e-09
2.73282e-13
-1.08128e-13
1.41872e-09
2.90849e-13
-1.77284e-13
1.41894e-09
2.49195e-13
-1.64659e-13
1.41913e-09
2.04611e-13
1.8435e-13
1.41764e-09
-8.93229e-13
-3.60239e-13
1.41799e-09
1.70267e-13
-7.50664e-15
1.41817e-09
-9.03786e-14
-4.18786e-14
1.41817e-09
-1.34953e-13
5.20277e-14
1.41775e-09
7.71316e-14
6.12334e-15
1.41903e-09
2.75115e-13
1.18374e-12
1.41872e-09
-1.41377e-14
-3.8247e-14
1.41876e-09
9.43427e-14
1.2e-13
1.41835e-09
-1.63348e-12
1.00662e-12
1.41823e-09
3.98012e-13
-7.47398e-14
1.41856e-09
1.6266e-13
-9.42936e-13
-1.90745e-13
1.22429e-12
9.98343e-10
-1.25392e-11
-2.54013e-09
1.7453e-09
-5.49654e-10
2.09932e-09
4.232e-10
-1.10055e-09
-8.72318e-10
-2.11179e-09
-7.96118e-10
2.49404e-09
3.10931e-10
1.02938e-10
4.52046e-11
-4.67174e-09
-1.80681e-09
5.90939e-09
5.23956e-10
-6.25257e-10
4.73372e-10
1.62221e-09
1.45318e-08
1.18551e-09
-1.46748e-08
2.17908e-11
-1.87157e-09
-7.42675e-10
-9.21917e-11
1.7182e-10
-2.84255e-10
1.24206e-10
-4.1659e-11
-6.27358e-10
8.29099e-10
-9.12754e-11
-5.09732e-11
2.9951e-11
5.14314e-11
6.0867e-11
-3.43195e-11
2.12225e-10
-4.6937e-12
-5.03601e-12
-3.72022e-11
-6.18356e-11
-6.98737e-11
7.32005e-13
1.43576e-09
1.45374e-11
-2.6211e-11
-2.65211e-10
-2.68053e-10
-4.33523e-10
-4.39954e-10
1.43247e-09
1.18774e-11
-3.14226e-12
1.42822e-09
7.47376e-12
4.37198e-13
1.4251e-09
4.97588e-12
-1.18314e-13
1.42299e-09
3.06059e-12
-5.94866e-15
1.42143e-09
1.93279e-12
-2.91857e-14
1.42037e-09
1.27731e-12
-1.61673e-15
1.42005e-09
8.00712e-13
-5.77252e-14
1.41995e-09
2.54099e-13
8.84164e-14
1.41918e-09
5.7403e-13
-1.65143e-13
1.41807e-09
8.27608e-13
-1.32028e-13
1.41849e-09
-1.04597e-13
-1.90087e-13
1.4186e-09
-3.92267e-13
1.15882e-13
1.41889e-09
-4.70085e-14
-3.07673e-14
1.41864e-09
5.01678e-13
3.01057e-13
1.41801e-09
-1.39057e-13
-6.72631e-13
1.41832e-09
-2.46563e-13
-1.00538e-13
1.41861e-09
-1.89033e-13
2.53518e-13
1.41803e-09
8.11222e-14
-1.28749e-13
1.41791e-09
-2.70175e-14
3.36004e-13
1.41836e-09
7.46927e-13
-2.14184e-12
1.41955e-09
1.16517e-12
7.99575e-13
1.41918e-09
5.64698e-13
6.34597e-14
1.42003e-09
7.61966e-13
-1.03666e-12
1.41866e-09
-3.17329e-14
-1.98857e-12
1.41846e-09
2.16727e-13
-2.68052e-12
1.41878e-09
-2.12728e-14
-4.47601e-14
1.41826e-09
1.20501e-12
-3.97073e-13
1.41856e-09
-2.57295e-13
1.90729e-13
1.41849e-09
-5.67038e-14
3.17693e-13
1.41822e-09
-3.3257e-13
-2.98825e-13
1.41802e-09
1.0141e-12
-6.59254e-13
1.41797e-09
2.14636e-14
-7.24784e-14
1.41787e-09
-8.3085e-14
3.06765e-14
1.41866e-09
-1.98548e-12
1.26985e-12
1.41923e-09
5.14564e-13
-8.18098e-13
1.41891e-09
-6.30353e-14
3.56592e-13
1.41888e-09
-2.30137e-14
1.46555e-13
1.41821e-09
-9.15203e-14
-8.81297e-13
1.41812e-09
5.28689e-13
-3.92886e-14
1.41792e-09
2.47845e-13
1.09132e-13
-1.75502e-12
7.49943e-13
-2.085e-09
-3.26436e-09
6.02671e-09
-4.86387e-10
2.15122e-09
1.95361e-09
2.54916e-09
2.09093e-09
7.01145e-09
7.20412e-08
-7.96326e-08
-8.16644e-09
-2.5219e-10
-3.55909e-09
5.68402e-09
-2.01001e-09
1.37273e-10
2.08481e-09
2.97894e-09
-1.44012e-09
-1.61488e-09
-2.00875e-09
-1.37609e-09
5.64554e-10
1.95728e-09
-5.33292e-11
-8.18104e-10
-4.61023e-10
5.12909e-10
-1.83529e-09
3.23534e-09
1.22571e-08
-1.39839e-08
-4.35167e-10
8.68593e-11
-2.2776e-11
-6.50868e-11
4.36196e-10
-4.6908e-11
-8.12875e-11
6.1285e-11
8.84592e-14
6.68221e-11
-3.87763e-11
1.22205e-12
-1.18374e-12
1.14858e-11
2.7256e-11
1.42186e-09
1.4337e-11
-2.83555e-11
-2.63993e-10
-2.58391e-10
-4.42593e-10
-4.28318e-10
1.42558e-09
1.00605e-11
-1.8053e-12
1.42373e-09
8.90758e-12
5.07521e-13
1.42231e-09
6.49651e-12
-4.86797e-14
1.4212e-09
4.1603e-12
3.11071e-14
1.42034e-09
2.84365e-12
-2.24502e-14
1.41959e-09
2.08443e-12
-2.36384e-14
1.41907e-09
1.3657e-12
-1.82612e-14
1.41868e-09
6.5414e-13
1.92257e-14
1.41859e-09
3.93164e-13
2.76129e-13
1.41919e-09
4.80281e-13
-2.29782e-13
1.41878e-09
3.3423e-13
-1.54937e-14
1.41875e-09
-4.33935e-14
-3.21399e-13
1.41869e-09
3.21288e-14
-1.48021e-14
1.41859e-09
-2.20078e-13
8.32694e-13
1.41876e-09
-9.02975e-13
6.01864e-13
1.41844e-09
5.51314e-15
6.83915e-14
1.41843e-09
-9.52845e-14
-7.26958e-14
1.4185e-09
4.91076e-15
-1.37439e-15
1.41881e-09
8.64206e-13
-1.19688e-12
1.41935e-09
1.20033e-12
-9.88139e-13
1.41854e-09
2.97313e-13
1.6777e-12
1.41866e-09
5.39835e-13
-9.41637e-14
1.41834e-09
-1.00163e-12
2.07518e-12
1.41841e-09
-1.28564e-13
1.60075e-14
1.41841e-09
8.52019e-14
1.21044e-13
1.41838e-09
-1.07868e-13
1.09272e-13
1.41892e-09
7.99713e-14
5.67123e-13
1.41881e-09
-7.69178e-14
-8.03579e-14
1.41865e-09
9.01329e-14
4.87809e-15
1.41832e-09
-4.49234e-13
4.30079e-13
1.41808e-09
1.23058e-12
9.59552e-15
1.4183e-09
9.703e-14
-3.01273e-13
1.41927e-09
5.87298e-13
-1.65248e-12
1.41809e-09
1.0022e-13
-9.17758e-13
1.41865e-09
-2.50642e-12
2.4539e-12
1.41874e-09
2.53762e-13
-4.1949e-13
1.41887e-09
3.03288e-14
-1.82838e-13
1.41874e-09
1.32105e-12
-1.2866e-12
1.4177e-09
1.50842e-12
5.22722e-14
1.41794e-09
2.18291e-14
-1.20052e-14
-2.00791e-12
4.70478e-13
2.42025e-09
1.04319e-10
7.6884e-10
8.40983e-10
-6.53286e-10
-1.94411e-09
-1.34603e-09
-1.84147e-09
1.10503e-09
6.51554e-09
-7.13988e-09
1.36078e-09
4.6869e-09
4.57614e-09
4.424e-09
-6.00589e-09
3.77269e-08
1.3559e-08
-5.83879e-08
2.86927e-10
-1.67954e-10
-4.86128e-11
-6.497e-10
-3.90357e-09
-2.14815e-09
9.64137e-10
4.5792e-09
3.27135e-09
4.28653e-09
-4.37178e-09
-3.82811e-09
1.24154e-09
1.37383e-09
-1.46399e-09
-4.44947e-10
3.96499e-10
1.48007e-09
2.14241e-10
-2.0962e-10
-1.10375e-10
-3.99326e-10
1.15184e-08
-2.73606e-09
-1.7932e-08
8.22218e-09
2.6883e-10
-5.93528e-10
3.79571e-10
-2.27905e-10
1.7305e-10
-1.28656e-10
-6.51791e-11
2.86054e-10
1.67089e-11
-4.76566e-11
-1.23011e-10
-8.40133e-11
-1.22271e-10
-4.93668e-11
-6.82109e-11
9.47268e-11
8.76401e-11
1.20127e-10
8.30989e-11
-1.35718e-10
6.05806e-12
-4.85527e-12
9.82919e-11
3.62236e-11
1.43519e-09
3.08646e-11
-2.45769e-11
-2.6909e-10
-2.69189e-10
-4.44034e-10
-4.44779e-10
1.42663e-09
2.16235e-11
-2.92771e-12
1.42193e-09
1.31966e-11
4.51376e-13
1.41942e-09
8.97846e-12
5.3703e-14
1.41967e-09
2.98646e-12
9.52836e-13
1.41954e-09
3.03696e-12
-1.94099e-14
1.41855e-09
3.65621e-12
-5.4361e-13
1.41808e-09
2.63258e-12
-7.72843e-13
1.41835e-09
4.71096e-13
-7.04647e-14
1.41823e-09
5.78429e-13
-4.50694e-14
1.41836e-09
6.88306e-14
2.93147e-13
1.41875e-09
-1.79281e-12
1.75409e-12
1.41859e-09
1.2895e-13
-6.92062e-15
1.41878e-09
3.33973e-13
-4.88718e-13
1.4188e-09
-4.88815e-14
-1.8671e-13
1.41874e-09
-1.17025e-13
-7.1155e-13
1.41883e-09
-1.52787e-13
6.68434e-14
1.41897e-09
-2.99008e-13
6.45016e-14
1.41905e-09
-5.62561e-14
-1.49238e-14
1.41885e-09
8.59859e-14
9.80637e-13
1.41826e-09
2.99729e-13
1.49134e-12
1.41847e-09
2.03695e-13
-1.13027e-13
1.41905e-09
1.73173e-13
-2.17538e-13
1.41829e-09
-5.92389e-13
3.49644e-13
1.4183e-09
-4.17955e-14
-1.08028e-13
1.41846e-09
-6.95517e-14
-1.38193e-14
1.41842e-09
-8.49625e-14
4.02681e-15
1.41852e-09
-3.97003e-14
9.27655e-15
1.41872e-09
-3.28189e-13
3.54083e-14
1.41776e-09
8.94285e-13
1.44687e-13
1.41809e-09
-5.14557e-13
-2.7808e-13
1.419e-09
-2.40598e-13
5.52484e-13
1.4189e-09
-5.50667e-13
7.31899e-13
1.41851e-09
-1.91589e-12
2.88121e-12
1.41879e-09
-1.05622e-14
-1.79485e-13
1.41814e-09
-1.99459e-13
-1.66264e-12
1.41857e-09
-1.90833e-13
8.28225e-15
1.41908e-09
-5.08164e-13
2.11587e-14
1.41906e-09
-1.38452e-12
2.71593e-12
1.41764e-09
3.09341e-12
-1.66913e-13
1.41796e-09
-8.55321e-13
5.61099e-13
-1.70899e-13
-9.72805e-13
2.01322e-10
8.50474e-10
-1.01892e-09
-7.9235e-12
2.89517e-11
8.43669e-10
4.40756e-09
3.24534e-09
-8.52552e-09
-3.43238e-09
-1.98177e-09
1.07112e-08
-1.05126e-09
-6.66516e-10
-2.81173e-11
4.26241e-10
-8.16092e-10
-2.19281e-09
1.24988e-10
-1.23672e-09
-3.34523e-10
-4.54389e-11
5.23166e-10
-2.6927e-09
-4.8224e-09
6.82256e-09
8.67396e-12
6.65963e-10
5.00399e-10
1.15322e-09
1.67157e-09
-2.85747e-10
-1.81923e-09
-1.2023e-09
-2.41773e-10
5.16421e-10
-2.67614e-09
2.32103e-10
2.1694e-09
-1.16578e-10
-5.13742e-10
-5.2883e-11
2.04619e-10
4.78584e-10
-7.46004e-11
-3.25676e-10
3.72889e-10
-6.61544e-11
-6.03918e-11
-1.16408e-10
-1.29967e-10
9.02999e-11
9.87426e-11
1.25891e-10
8.54067e-11
-1.48839e-10
-2.57234e-13
3.51931e-12
1.01939e-10
4.3638e-11
1.41608e-09
3.93704e-11
-2.31742e-11
-2.66519e-10
-2.61978e-10
-4.4047e-10
-4.32406e-10
1.41477e-09
2.59934e-11
-3.01394e-12
1.41394e-09
1.35785e-11
4.82173e-13
1.41547e-09
7.78206e-12
-3.02108e-13
1.41532e-09
4.14156e-12
-9.67579e-13
1.41593e-09
2.45786e-12
-3.75177e-15
1.41737e-09
1.70086e-12
5.46582e-13
1.41822e-09
1.0441e-12
7.60633e-13
1.41817e-09
5.18077e-13
2.28764e-14
1.41873e-09
-2.33413e-13
2.7641e-13
1.41859e-09
1.29542e-13
9.47988e-14
1.41819e-09
3.31717e-13
-1.71856e-12
1.41896e-09
6.26206e-13
-1.26236e-12
1.41868e-09
2.20388e-13
4.00853e-13
1.41865e-09
7.08354e-14
-7.96226e-14
1.41838e-09
5.49932e-13
-3.91432e-13
1.41844e-09
-1.20575e-13
-8.57489e-14
1.4191e-09
7.57258e-13
-1.71797e-12
1.41911e-09
-4.51201e-14
-1.94561e-14
1.4192e-09
1.33332e-13
-1.34972e-13
1.4193e-09
3.45423e-13
-1.45884e-13
1.4176e-09
4.93754e-12
-3.03267e-12
1.41764e-09
-1.00119e-12
1.13311e-12
1.41875e-09
-2.38773e-13
-1.46973e-12
1.4187e-09
8.64065e-14
-8.74474e-14
1.41852e-09
9.11263e-14
1.3336e-14
1.41821e-09
9.37673e-13
-7.23499e-13
1.41826e-09
-2.10746e-14
-8.14047e-14
1.41799e-09
-1.62897e-13
9.22846e-14
1.41882e-09
2.09342e-13
-1.53045e-13
1.41829e-09
-6.52481e-13
6.53884e-13
1.41898e-09
-7.62896e-13
-1.84898e-13
1.419e-09
-4.80416e-13
-9.7394e-14
1.41839e-09
-1.99983e-13
-1.11866e-12
1.41843e-09
1.97652e-14
-7.76295e-14
1.41822e-09
-1.68521e-13
1.63918e-13
1.41799e-09
-3.47626e-14
7.49527e-14
1.41772e-09
-1.43329e-13
-1.01269e-13
1.4177e-09
1.28723e-12
-2.65895e-12
1.41958e-09
1.10727e-12
1.04481e-13
1.41932e-09
-4.82407e-13
-1.18695e-13
-8.54789e-13
2.00952e-12
1.67066e-09
6.18906e-09
-1.64333e-09
-6.02542e-09
5.39451e-09
6.68832e-10
-1.36682e-10
3.4008e-09
3.02174e-10
-1.04998e-09
-1.71421e-11
1.92798e-08
4.81813e-08
1.95619e-08
-9.55849e-08
-1.78349e-09
-8.10771e-10
4.33756e-09
-9.35169e-10
-8.08125e-10
7.04079e-12
-9.21219e-10
1.68965e-09
-1.29236e-09
6.92622e-09
-1.4321e-09
-2.70026e-09
-1.68891e-09
-1.06441e-10
1.46661e-10
-6.28287e-10
-1.30499e-09
9.44216e-10
2.31255e-10
-7.54697e-10
8.84216e-10
-1.56455e-11
-1.16951e-10
-2.961e-11
9.96652e-11
6.25732e-11
-2.23754e-11
-6.10271e-11
4.42483e-11
-5.63048e-11
9.5463e-11
-1.01408e-10
-5.7104e-12
2.24722e-12
7.61286e-11
2.87425e-11
1.37518e-09
2.16688e-11
-2.44288e-11
-2.4911e-10
-2.50308e-10
-4.13712e-10
-4.19903e-10
1.39333e-09
9.79843e-12
-1.94322e-12
1.40253e-09
3.90846e-12
4.99802e-13
1.40879e-09
1.57901e-12
-1.00237e-14
1.41242e-09
5.06059e-13
4.84754e-14
1.41474e-09
1.5154e-13
1.92665e-14
1.41623e-09
1.61721e-13
6.70297e-14
1.41731e-09
-1.60451e-14
6.29597e-15
1.41798e-09
-1.39519e-13
4.45228e-15
1.41807e-09
-2.84015e-13
-1.34921e-14
1.41843e-09
-9.13681e-13
6.89222e-13
1.41889e-09
-2.27761e-13
1.12897e-13
1.41833e-09
-1.27372e-13
1.32265e-12
1.41856e-09
-7.05764e-14
6.22216e-14
1.41862e-09
5.36086e-14
-3.20486e-14
1.41889e-09
-7.26347e-14
3.59241e-13
1.41882e-09
4.61876e-14
-9.22358e-14
1.41827e-09
-3.74208e-13
1.68969e-12
1.41855e-09
-6.75285e-13
3.52411e-13
1.41892e-09
-3.04921e-13
6.96626e-14
1.41719e-09
4.82884e-12
-2.75384e-12
1.41878e-09
4.40987e-13
2.89699e-12
1.41891e-09
-2.68731e-13
-8.57179e-13
1.4187e-09
-9.74046e-14
6.47536e-14
1.41861e-09
8.73292e-14
8.39095e-14
1.41856e-09
-1.29717e-14
1.35997e-13
1.41874e-09
6.2004e-14
6.92205e-13
1.41866e-09
1.0231e-13
-6.07067e-14
1.41847e-09
3.42095e-14
-1.35128e-14
1.41867e-09
7.34216e-14
-8.54718e-14
1.41855e-09
3.27007e-14
-5.77086e-13
1.41872e-09
3.58472e-13
-1.29592e-12
1.41857e-09
-1.24784e-13
-2.24386e-13
1.41803e-09
1.33672e-12
-1.00002e-12
1.41836e-09
-2.54091e-13
-7.01417e-14
1.41811e-09
-2.02607e-13
2.78591e-13
1.41814e-09
-1.07634e-13
3.04676e-14
1.41791e-09
9.78566e-14
-1.16426e-14
1.41826e-09
-7.72078e-13
1.7032e-12
1.41864e-09
6.74884e-13
4.40966e-14
1.41883e-09
-1.02478e-13
-5.75295e-13
-1.8492e-13
-1.48513e-12
2.04593e-09
-2.88728e-09
-2.76663e-09
6.07501e-10
1.97119e-09
7.93006e-10
1.62517e-09
2.58355e-09
-5.78695e-09
8.90958e-09
7.73034e-09
-1.18773e-09
-1.26909e-08
9.35633e-10
1.32508e-09
1.44921e-09
-1.21587e-09
4.13656e-10
2.46402e-09
-1.21493e-10
-1.94169e-09
-1.10013e-09
-4.04641e-09
-5.44333e-09
3.59564e-09
1.21984e-08
2.58438e-10
-1.87225e-09
3.6312e-10
-2.18219e-09
6.17907e-10
-1.54698e-09
-1.97985e-09
3.32265e-09
-1.27601e-09
-9.79669e-09
5.37804e-09
4.98829e-09
8.31355e-11
2.81109e-10
2.74005e-10
6.81225e-11
3.32562e-10
4.40997e-10
-4.45633e-10
-8.23741e-10
4.95839e-10
-1.14418e-10
-1.83722e-11
1.77362e-11
5.24797e-11
6.25747e-11
-3.38236e-11
-1.66995e-12
1.7275e-10
6.72768e-12
2.87075e-11
-3.49572e-11
-6.24895e-11
-6.68868e-11
-2.78717e-12
-2.17656e-12
-3.38956e-12
1.35698e-09
-2.89262e-11
-2.38445e-11
-2.40828e-10
-2.3905e-10
-4.01354e-10
-4.01303e-10
1.38415e-09
-1.52751e-11
-2.08249e-12
1.39868e-09
-1.10814e-11
4.94594e-13
1.40724e-09
-7.17045e-12
2.24028e-13
1.4118e-09
-4.09966e-12
7.84576e-14
1.41449e-09
-2.49523e-12
-1.28599e-14
1.41622e-09
-1.55181e-12
1.35669e-14
1.41707e-09
-8.64419e-13
2.21783e-14
1.41783e-09
-5.37165e-13
-3.38255e-13
1.41825e-09
-5.6484e-13
-1.29079e-13
1.41828e-09
6.54083e-13
-1.58215e-12
1.41872e-09
-5.04064e-13
-1.53051e-13
1.41873e-09
-1.95992e-13
6.78022e-14
1.41865e-09
5.91083e-14
-4.89114e-14
1.41865e-09
-4.89847e-13
5.50504e-13
1.41874e-09
-1.78309e-13
1.64675e-14
1.41858e-09
6.1324e-14
1.53733e-13
1.41831e-09
-4.59272e-13
3.67169e-13
1.4182e-09
3.5305e-14
-5.97823e-13
1.41736e-09
5.48444e-13
-1.20273e-14
1.4188e-09
6.31226e-13
2.75612e-12
1.41877e-09
7.85104e-13
-3.12178e-13
1.41954e-09
-2.77152e-12
1.72912e-12
1.41923e-09
2.57016e-13
-4.86066e-14
1.41852e-09
1.01814e-12
-2.30507e-13
1.41846e-09
6.33864e-14
-2.54247e-14
1.41851e-09
-4.06744e-14
4.26163e-14
1.41867e-09
4.59126e-13
-5.25907e-13
1.41853e-09
2.0839e-13
-5.42573e-14
1.41869e-09
-1.60362e-13
6.68166e-14
1.41894e-09
-1.39754e-13
-8.86134e-14
1.4182e-09
-3.44452e-13
1.42798e-12
1.41812e-09
2.23298e-13
-2.83202e-13
1.41855e-09
3.03609e-14
8.62395e-13
1.41831e-09
1.10918e-14
-3.08181e-14
1.41836e-09
1.86143e-14
-2.78923e-13
1.41816e-09
1.33717e-13
-4.58577e-14
1.41772e-09
4.93174e-13
3.50417e-14
1.4182e-09
-1.04737e-12
-2.08448e-13
1.41813e-09
4.96286e-13
2.4487e-13
1.41929e-09
-2.86189e-12
1.59733e-12
-3.24961e-13
-5.31676e-13
8.45491e-09
9.71355e-10
-1.09248e-08
8.39116e-09
-5.91158e-09
-1.08003e-08
4.8566e-09
4.13494e-09
1.9971e-09
9.52371e-10
-5.04716e-10
-5.25243e-08
4.29115e-08
3.67805e-08
-2.20896e-08
5.00928e-10
2.49036e-10
8.18285e-10
6.88456e-10
1.5369e-09
1.52128e-09
7.03305e-10
1.72697e-09
-1.82304e-10
-1.2956e-09
-3.99629e-10
-7.67394e-10
1.34014e-09
3.02621e-10
-4.75711e-10
-2.26278e-10
-7.15556e-10
-2.06637e-10
5.48862e-11
1.09359e-09
-6.49241e-11
4.83972e-11
-5.31879e-11
-5.05251e-11
1.2024e-10
-2.86179e-11
-2.46373e-12
1.6636e-10
-5.79414e-12
6.79425e-12
-2.81982e-11
-5.48874e-11
-5.31889e-11
1.36322e-09
-1.02644e-10
-2.18342e-11
-2.38912e-10
-2.33853e-10
-4.01635e-10
-3.9326e-10
1.39204e-09
-4.26797e-11
-1.39117e-12
1.40494e-09
-2.45595e-11
5.93246e-13
1.41102e-09
-1.29621e-11
-2.51776e-13
1.4142e-09
-7.25779e-12
1.60508e-14
1.41614e-09
-4.435e-12
2.7039e-14
1.41708e-09
-2.42999e-12
-3.60592e-14
1.41805e-09
-2.42496e-12
6.0955e-13
1.41809e-09
-8.50437e-13
2.95688e-13
1.41838e-09
-6.52676e-13
-1.84041e-13
1.41852e-09
-2.87856e-13
8.1621e-13
1.41823e-09
-7.05234e-13
5.02566e-13
1.41849e-09
-3.77617e-13
-6.50145e-14
1.41846e-09
-2.75105e-13
3.63914e-13
1.41861e-09
-1.21677e-13
-5.21075e-13
1.41843e-09
4.96187e-14
-4.27375e-14
1.41883e-09
-3.24842e-14
-2.99166e-13
1.41929e-09
-5.70896e-13
-3.41714e-13
1.41811e-09
-1.03319e-12
2.25563e-12
1.41882e-09
-1.99006e-13
3.7957e-14
1.41904e-09
2.31781e-13
1.843e-13
1.41901e-09
2.0883e-13
5.98823e-13
1.41818e-09
-1.2745e-13
-1.81174e-12
1.41824e-09
2.48613e-13
-5.70141e-14
1.41896e-09
1.03017e-12
-7.40463e-13
1.4182e-09
9.18238e-16
8.17431e-13
1.41839e-09
8.48201e-15
-2.47888e-13
1.41851e-09
-3.07024e-13
6.23929e-13
1.4187e-09
-2.27167e-13
2.36964e-13
1.41888e-09
-2.6383e-13
-8.87489e-14
1.41852e-09
9.46022e-13
-7.35352e-13
1.41852e-09
-2.84932e-13
-7.41969e-14
1.41847e-09
-2.23495e-13
4.835e-13
1.41842e-09
-2.39358e-13
3.05159e-13
1.41826e-09
-1.96439e-13
3.58766e-13
1.41839e-09
-7.37906e-13
6.19488e-13
1.4185e-09
9.52728e-14
-8.16472e-14
1.41903e-09
-2.1619e-13
1.8076e-13
1.41777e-09
4.49548e-13
-2.44952e-13
1.41802e-09
3.72009e-13
-1.26068e-13
1.41811e-09
1.08744e-12
-4.04762e-12
-1.8067e-12
7.78458e-16
1.05756e-09
2.95881e-09
2.55724e-09
1.16813e-08
-8.97587e-10
1.36408e-09
1.18241e-10
-6.92957e-09
-9.95284e-09
-1.6071e-09
4.94875e-09
-4.15266e-11
-2.85474e-09
1.24907e-09
1.06287e-09
-1.46599e-09
-9.63768e-10
1.17818e-10
-5.05004e-10
3.10743e-09
-9.41339e-09
-5.79393e-09
-2.16e-08
-9.51451e-08
6.47891e-08
6.45504e-08
-2.57739e-11
3.70609e-09
-2.81432e-10
6.69906e-10
-4.06891e-09
-2.24346e-10
1.43386e-11
-7.07661e-12
1.73094e-10
4.39903e-11
1.50824e-09
-2.81084e-11
-2.63679e-10
-2.9671e-10
-4.43825e-10
-4.95071e-10
2.78669e-11
1.74807e-11
3.91253e-11
2.28353e-11
1.45239e-09
-3.00887e-12
1.4352e-09
-4.70883e-13
1.42604e-09
-1.85267e-13
1.42163e-09
-8.81244e-14
1.41896e-09
-6.90095e-14
1.41963e-09
2.18398e-13
1.41943e-09
-3.21798e-13
1.41849e-09
-8.94319e-13
1.4181e-09
1.18563e-15
1.41904e-09
8.49282e-13
1.41909e-09
-9.02762e-14
1.4184e-09
-9.16051e-13
1.41833e-09
-1.25136e-13
1.41844e-09
-1.66354e-14
1.41843e-09
-9.42467e-14
1.41857e-09
4.30803e-14
1.41838e-09
3.75179e-16
1.41842e-09
1.12483e-12
1.41913e-09
-2.01798e-12
1.41883e-09
-2.67639e-14
1.41926e-09
1.03789e-12
1.41893e-09
-1.49817e-13
1.41872e-09
-1.97122e-12
1.41784e-09
-1.12191e-12
1.41815e-09
1.02487e-12
1.41852e-09
-3.98894e-13
1.41823e-09
1.65763e-13
1.41906e-09
1.86978e-12
1.41854e-09
-9.1353e-14
1.41838e-09
1.04184e-13
1.41893e-09
7.74458e-13
1.41862e-09
1.42578e-13
1.41862e-09
-2.61165e-13
1.41886e-09
-2.46361e-13
1.41858e-09
6.50337e-13
1.418e-09
-5.88435e-13
1.41836e-09
2.57894e-13
1.4184e-09
-3.58171e-13
1.41883e-09
1.9813e-13
1.4194e-09
-2.39101e-13
1.41807e-09
2.63144e-12
5.79225e-14
1.52492e-09
-3.35814e-09
1.66098e-09
-3.06634e-09
2.21187e-09
-3.40804e-09
6.83947e-10
6.9885e-10
2.45877e-09
-2.14656e-09
-1.38764e-09
2.7458e-09
-1.15441e-09
-2.1896e-09
2.75512e-09
-1.21433e-09
1.11402e-08
3.52773e-09
7.24645e-09
4.19947e-09
-1.31383e-08
-4.52882e-09
-3.85468e-09
-1.78241e-08
-2.90073e-09
-1.07694e-09
5.28103e-10
2.17231e-08
7.18101e-09
2.84801e-09
-3.55961e-09
-7.82045e-11
-5.50534e-09
-2.02844e-10
-6.61869e-11
6.37841e-11
2.78184e-11
1.97515e-10
2.54648e-09
1.25603e-11
3.91029e-11
-6.96883e-10
-6.6799e-10
-6.96804e-10
-6.67764e-10
-5.57174e-12
1.25091e-11
-5.56277e-12
2.43063e-09
6.50224e-11
2.75898e-12
2.399e-09
4.01671e-12
3.45328e-13
2.38e-09
1.89881e-12
1.29778e-13
2.37243e-09
-1.46084e-12
-3.98469e-13
2.36934e-09
-1.59705e-12
-4.28876e-13
2.36488e-09
-1.82967e-12
3.39047e-13
2.36354e-09
-1.21208e-12
3.25195e-13
2.36296e-09
-9.08265e-13
1.07966e-12
2.36319e-09
-6.29266e-13
-1.04966e-14
2.36183e-09
-7.11501e-13
-4.85664e-14
2.3616e-09
-1.02132e-12
3.35366e-13
2.36235e-09
3.1989e-14
7.25132e-13
2.36241e-09
-7.8601e-14
-1.74473e-13
2.36217e-09
-1.77046e-13
-1.74075e-13
2.36234e-09
9.78855e-13
-5.50472e-13
2.36233e-09
1.39706e-14
-9.42925e-14
2.3633e-09
9.50125e-13
-1.18676e-12
2.36223e-09
2.21606e-13
1.0769e-12
2.36269e-09
1.40222e-13
-1.09476e-13
2.3629e-09
-2.91511e-14
-7.39958e-14
2.36232e-09
-5.13601e-13
5.18687e-13
2.36259e-09
4.31753e-13
-5.26396e-14
2.36148e-09
5.74877e-12
-1.52954e-12
2.3616e-09
4.81842e-12
-3.00765e-12
2.3615e-09
-1.3934e-13
-2.45128e-13
2.36362e-09
1.25819e-12
-9.17192e-13
2.36341e-09
3.92579e-13
1.87546e-14
2.36162e-09
2.01648e-13
1.01398e-12
2.36151e-09
4.70763e-13
9.53913e-14
2.36104e-09
-1.01733e-12
6.81638e-13
2.36358e-09
-7.05789e-13
-1.80173e-12
2.36275e-09
8.89295e-13
-1.33239e-13
2.36251e-09
2.20601e-13
3.84526e-14
2.36231e-09
-1.27058e-13
-6.25845e-14
2.36355e-09
-5.36088e-13
1.11524e-12
2.36189e-09
3.26961e-12
-2.45192e-12
2.36188e-09
-1.88306e-13
-6.46008e-13
2.36134e-09
1.88356e-13
4.98594e-13
2.36304e-09
-1.53357e-12
-7.42526e-13
2.36261e-09
2.36504e-13
1.69252e-13
2.36151e-09
7.72761e-13
9.21063e-13
-5.84439e-13
-4.5864e-13
2.84326e-09
-1.69951e-09
9.98157e-09
-2.67183e-09
2.84311e-09
2.58803e-09
1.00115e-08
-3.68171e-09
-8.10147e-09
-9.63731e-09
-2.81044e-10
-1.35426e-09
-1.69065e-09
-3.66151e-09
6.01714e-09
-1.44735e-08
8.83662e-09
1.41117e-09
1.64436e-10
1.95867e-09
2.59015e-09
-1.18175e-09
-1.50424e-08
3.40854e-09
-3.68804e-09
6.56162e-10
1.58475e-08
-1.52335e-08
-2.27654e-09
1.8131e-09
-4.78862e-10
2.01225e-08
-4.68091e-09
-4.79311e-09
-6.8473e-11
5.59586e-09
2.33218e-08
2.81008e-09
4.41682e-09
2.22636e-10
-3.02968e-08
-4.74481e-10
-8.19232e-10
-5.1195e-11
-1.95769e-09
9.84147e-10
1.11328e-09
7.30735e-10
-1.06464e-10
-9.22723e-11
-1.1661e-11
2.07845e-11
2.77061e-11
1.61907e-10
-6.17416e-10
6.173e-10
1.57825e-11
-8.21969e-12
5.14425e-12
2.38189e-09
2.45023e-11
2.46166e-11
-5.97656e-10
-5.97641e-10
-5.97657e-10
-5.9766e-10
2.37523e-09
7.22978e-12
1.76209e-12
2.3738e-09
4.44736e-12
-4.85148e-13
2.37027e-09
1.97964e-12
9.00308e-14
2.36767e-09
1.07575e-12
4.50401e-15
2.36554e-09
3.11971e-13
1.5647e-14
2.36419e-09
1.56758e-13
1.85748e-14
2.36344e-09
6.47881e-13
-9.87764e-13
2.36272e-09
-9.88373e-14
1.11775e-13
2.36253e-09
-5.28164e-13
3.68416e-14
2.36289e-09
-5.96985e-13
-4.68584e-13
2.3626e-09
5.5146e-13
-2.48123e-14
2.36234e-09
-3.45547e-13
8.18737e-13
2.36202e-09
3.36146e-13
-1.1489e-13
2.36225e-09
-2.36136e-12
1.44357e-12
2.36324e-09
1.13502e-12
-1.31764e-12
2.36211e-09
1.94361e-13
8.24966e-13
2.362e-09
9.74836e-14
-4.8085e-14
2.36272e-09
-7.18316e-13
1.81062e-13
2.36264e-09
-9.49627e-14
5.70962e-14
2.36146e-09
4.57509e-12
-2.45817e-12
2.36091e-09
9.96859e-14
-1.55088e-12
2.36211e-09
5.19782e-13
2.1418e-12
2.36252e-09
8.75489e-13
1.76683e-12
2.36421e-09
-2.56065e-12
2.76753e-12
2.36314e-09
1.13353e-12
1.50141e-12
2.36293e-09
3.82794e-13
8.97752e-14
2.36248e-09
3.11001e-13
1.32614e-13
2.36292e-09
3.37844e-13
-4.99846e-13
2.36317e-09
-5.22933e-13
-5.91741e-13
2.36098e-09
-7.1427e-13
1.81092e-12
2.36136e-09
3.62047e-13
1.09941e-13
2.36158e-09
-6.43234e-14
5.9689e-15
2.36151e-09
9.97644e-14
-1.32116e-13
2.36121e-09
-2.25224e-13
-2.56134e-14
2.36303e-09
2.2731e-13
2.39562e-12
2.3626e-09
8.98198e-14
9.46387e-14
2.36274e-09
1.919e-13
-4.19336e-14
2.36209e-09
6.80842e-13
-5.60745e-13
2.36185e-09
5.90561e-13
-2.00692e-13
2.36227e-09
1.87251e-13
-7.80182e-13
-2.89182e-13
2.1094e-13
7.99783e-09
2.95619e-09
-6.0006e-10
-1.14459e-08
-9.78903e-09
2.61789e-10
2.01745e-09
-2.23655e-09
-4.34618e-10
1.01809e-08
4.19499e-09
-2.97001e-10
2.49209e-08
-2.90867e-08
-3.73521e-10
1.15505e-09
4.59573e-10
4.41658e-10
1.17558e-09
-2.8411e-09
-1.24258e-08
1.26762e-08
-2.72356e-09
-3.85174e-09
1.18988e-08
-6.64159e-09
-2.18848e-09
3.50657e-09
-2.19388e-09
-4.57622e-10
-4.68763e-10
-1.60337e-09
9.27354e-10
3.79629e-09
-2.28679e-09
7.48836e-10
-9.94458e-10
4.78257e-10
1.42438e-09
6.29774e-10
-1.81748e-10
-1.10188e-10
-8.20877e-11
1.08343e-10
1.17243e-10
1.48438e-10
-1.38319e-10
6.16073e-10
-2.02895e-11
-1.88655e-12
-4.11346e-12
-1.54588e-10
-1.4286e-10
-1.60193e-10
6.17093e-12
2.38426e-09
1.07115e-11
2.64072e-11
-6.01497e-10
-6.09957e-10
-6.01494e-10
-6.09982e-10
2.37427e-09
1.12529e-11
2.97422e-12
2.37242e-09
7.31988e-12
-4.24641e-13
2.36916e-09
5.07644e-12
1.63416e-13
2.36714e-09
3.14509e-12
1.53957e-14
2.36545e-09
2.03111e-12
9.48084e-15
2.36429e-09
1.39044e-12
-1.61584e-14
2.36403e-09
8.66611e-13
4.68789e-14
2.36398e-09
1.57679e-13
-7.36307e-14
2.36321e-09
6.09778e-13
-5.06241e-13
2.36145e-09
8.92488e-13
1.65575e-13
2.36218e-09
-3.43639e-13
-1.38636e-14
2.36234e-09
-6.2305e-13
2.44532e-13
2.3629e-09
-2.09943e-13
-2.12327e-14
2.36233e-09
-3.93793e-13
-1.08353e-12
2.36141e-09
-1.51555e-13
1.54476e-12
2.36179e-09
-3.15992e-13
3.98706e-14
2.36223e-09
-1.77275e-13
9.46695e-14
2.36129e-09
1.80418e-13
-9.09047e-14
2.361e-09
8.65941e-13
-3.31516e-13
2.36204e-09
-7.33879e-13
2.13291e-12
2.36375e-09
-3.73579e-12
2.92362e-12
2.36332e-09
1.13111e-12
-1.24625e-13
2.36483e-09
-2.53205e-12
8.45878e-13
2.36271e-09
1.85905e-13
-2.64362e-12
2.36201e-09
-4.76229e-14
-8.21056e-13
2.36255e-09
-1.81583e-13
-4.37991e-14
2.36209e-09
5.89722e-13
-2.40453e-13
2.36236e-09
-2.74352e-13
5.08539e-13
2.36231e-09
-1.01581e-13
-8.40722e-14
2.36183e-09
-5.60521e-13
-4.407e-15
2.36126e-09
-4.13796e-13
6.66081e-13
2.36116e-09
-2.18883e-13
1.52408e-13
2.36129e-09
3.73566e-13
-3.98366e-13
2.36253e-09
1.52259e-12
-1.72945e-12
2.3634e-09
-2.26797e-12
7.85232e-13
2.36303e-09
9.53254e-13
-1.48211e-13
2.363e-09
7.06955e-13
-3.51974e-13
2.36177e-09
7.73828e-14
9.35519e-13
2.36144e-09
8.18634e-13
5.62852e-14
2.36137e-09
4.37433e-13
-7.27098e-14
-2.35689e-12
1.41268e-12
-3.76242e-09
-4.7719e-10
2.74133e-09
2.50227e-09
-3.96343e-10
-7.77532e-08
1.23403e-09
4.92252e-10
-4.12435e-10
7.76775e-08
-1.23812e-09
4.36577e-10
-6.20608e-10
-4.63914e-09
1.46564e-09
4.73917e-10
7.67701e-10
9.24625e-10
6.21815e-10
5.69459e-10
-5.97027e-09
1.08842e-08
1.3403e-09
-1.0134e-08
-2.78429e-09
6.66402e-09
-4.24366e-09
1.72299e-10
-2.93773e-11
-7.60462e-09
-2.4716e-09
1.4177e-08
-5.19559e-10
-6.15401e-10
6.48244e-10
2.37711e-11
2.4151e-10
2.21435e-10
-4.13138e-10
-4.95234e-11
-2.70065e-10
3.9604e-10
7.30432e-11
2.63643e-10
-1.38681e-10
-1.7619e-11
9.02454e-12
-1.01611e-11
9.32521e-12
1.48117e-10
2.36775e-09
9.4121e-12
2.79513e-11
-6.15042e-10
-5.96229e-10
-6.15045e-10
-5.96312e-10
2.36814e-09
7.34533e-12
1.87786e-12
2.36805e-09