/*--------------------------------*- C++ -*----------------------------------*\
| =========                 |                                                 |
| \\      /  F ield         | OpenFOAM: The Open Source CFD Toolbox           |
|  \\    /   O peration     | Version:  5.0                                   |
|   \\  /    A nd           | Web:      www.OpenFOAM.org                      |
|    \\/     M anipulation  |                                                 |
\*---------------------------------------------------------------------------*/
FoamFile
{
    version     2.0;
    format      ascii;
    class       volScalarField;
    location    "3.6";
    object      rAU;
}
// * * * * * * * * * * * * * * * * * * * * * * * * * * * * * * * * * * * * * //

dimensions      [-1 3 1 0 0 0 0];

internalField   nonuniform List<scalar> 
8570
(
9.60708e-07
8.84604e-07
8.83575e-07
8.52381e-07
8.8389e-07
6.90494e-07
3.76968e-08
3.92291e-07
3.93664e-07
3.94698e-07
3.95731e-07
3.96763e-07
3.97795e-07
3.98826e-07
3.99856e-07
4.00886e-07
4.01915e-07
4.02944e-07
4.03971e-07
4.04998e-07
4.06024e-07
4.0705e-07
4.08075e-07
4.09099e-07
4.10122e-07
4.11145e-07
4.12166e-07
4.13187e-07
4.14208e-07
4.15227e-07
4.16246e-07
4.17264e-07
4.18281e-07
4.19297e-07
4.20313e-07
4.21328e-07
4.22342e-07
4.23355e-07
4.24367e-07
4.25379e-07
4.2639e-07
4.274e-07
4.28409e-07
4.29417e-07
4.30425e-07
4.31431e-07
4.32437e-07
4.33442e-07
4.34446e-07
4.36222e-07
8.90017e-07
8.36113e-07
1.87703e-07
8.60578e-07
8.66e-07
6.79636e-07
5.60562e-08
1.29777e-07
3.93456e-07
3.94699e-07
3.95731e-07
3.96763e-07
3.97795e-07
3.98826e-07
3.99856e-07
4.00886e-07
4.01915e-07
4.02944e-07
4.03971e-07
4.04998e-07
4.06024e-07
4.0705e-07
4.08075e-07
4.09099e-07
4.10122e-07
4.11145e-07
4.12166e-07
4.13187e-07
4.14208e-07
4.15227e-07
4.16246e-07
4.17264e-07
4.18281e-07
4.19297e-07
4.20313e-07
4.21328e-07
4.22342e-07
4.23355e-07
4.24367e-07
4.25379e-07
4.2639e-07
4.274e-07
4.28409e-07
4.29417e-07
4.30425e-07
4.31431e-07
4.32437e-07
4.33442e-07
4.34446e-07
4.36222e-07
8.89293e-07
3.5567e-07
6.41557e-07
8.68346e-07
8.82597e-07
6.83975e-07
6.93373e-07
1.29721e-07
3.93454e-07
3.94697e-07
3.95731e-07
3.96763e-07
3.97795e-07
3.98826e-07
3.99856e-07
4.00886e-07
4.01915e-07
4.02944e-07
4.03971e-07
4.04998e-07
4.06024e-07
4.0705e-07
4.08075e-07
4.09099e-07
4.10122e-07
4.11145e-07
4.12166e-07
4.13187e-07
4.14208e-07
4.15227e-07
4.16246e-07
4.17264e-07
4.18281e-07
4.19297e-07
4.20313e-07
4.21328e-07
4.22342e-07
4.23355e-07
4.24368e-07
4.25379e-07
4.2639e-07
4.274e-07
4.28409e-07
4.29417e-07
4.30425e-07
4.31431e-07
4.32437e-07
4.33442e-07
4.34446e-07
4.36222e-07
7.30237e-07
6.67323e-07
7.43135e-07
8.78386e-07
8.2122e-07
6.85294e-07
7.01469e-07
3.52213e-08
3.93452e-07
3.94696e-07
3.9573e-07
3.96762e-07
3.97794e-07
3.98826e-07
3.99856e-07
4.00886e-07
4.01915e-07
4.02944e-07
4.03971e-07
4.04998e-07
4.06024e-07
4.0705e-07
4.08075e-07
4.09099e-07
4.10122e-07
4.11145e-07
4.12166e-07
4.13187e-07
4.14208e-07
4.15227e-07
4.16246e-07
4.17264e-07
4.18281e-07
4.19297e-07
4.20313e-07
4.21328e-07
4.22342e-07
4.23355e-07
4.24368e-07
4.25379e-07
4.2639e-07
4.274e-07
4.28409e-07
4.29417e-07
4.30425e-07
4.31431e-07
4.32437e-07
4.33442e-07
4.34446e-07
4.36222e-07
8.69343e-07
8.95016e-07
6.36709e-07
8.21444e-07
7.12293e-07
6.74258e-07
9.02945e-07
3.77129e-08
3.9345e-07
3.94694e-07
3.95729e-07
3.96762e-07
3.97794e-07
3.98826e-07
3.99856e-07
4.00886e-07
4.01915e-07
4.02944e-07
4.03971e-07
4.04998e-07
4.06024e-07
4.0705e-07
4.08075e-07
4.09099e-07
4.10122e-07
4.11145e-07
4.12166e-07
4.13187e-07
4.14208e-07
4.15227e-07
4.16246e-07
4.17264e-07
4.18281e-07
4.19297e-07
4.20313e-07
4.21328e-07
4.22342e-07
4.23355e-07
4.24368e-07
4.25379e-07
4.2639e-07
4.274e-07
4.28409e-07
4.29417e-07
4.30425e-07
4.31431e-07
4.32437e-07
4.33442e-07
4.34446e-07
4.36222e-07
3.88376e-07
6.10686e-07
6.85031e-07
8.47903e-07
6.42128e-07
6.83718e-07
9.03187e-07
4.10573e-08
3.9345e-07
3.94694e-07
3.95729e-07
3.96762e-07
3.97794e-07
3.98826e-07
3.99856e-07
4.00886e-07
4.01915e-07
4.02944e-07
4.03971e-07
4.04998e-07
4.06024e-07
4.0705e-07
4.08075e-07
4.09099e-07
4.10122e-07
4.11145e-07
4.12166e-07
4.13187e-07
4.14208e-07
4.15227e-07
4.16246e-07
4.17264e-07
4.18281e-07
4.19297e-07
4.20313e-07
4.21328e-07
4.22342e-07
4.23355e-07
4.24368e-07
4.25379e-07
4.2639e-07
4.274e-07
4.28409e-07
4.29417e-07
4.30425e-07
4.31431e-07
4.32437e-07
4.33442e-07
4.34446e-07
4.36222e-07
8.84313e-07
7.37697e-07
2.09896e-07
8.88958e-07
8.93495e-07
6.83947e-07
7.00234e-07
3.58691e-08
3.9345e-07
3.94695e-07
3.95729e-07
3.96762e-07
3.97794e-07
3.98826e-07
3.99856e-07
4.00886e-07
4.01915e-07
4.02944e-07
4.03971e-07
4.04998e-07
4.06024e-07
4.0705e-07
4.08075e-07
4.09099e-07
4.10122e-07
4.11145e-07
4.12166e-07
4.13187e-07
4.14208e-07
4.15227e-07
4.16246e-07
4.17264e-07
4.18281e-07
4.19297e-07
4.20313e-07
4.21328e-07
4.22342e-07
4.23355e-07
4.24368e-07
4.25379e-07
4.2639e-07
4.274e-07
4.28409e-07
4.29417e-07
4.30425e-07
4.31431e-07
4.32437e-07
4.33442e-07
4.34446e-07
4.36222e-07
9.68416e-07
9.56334e-07
9.36482e-07
8.68601e-07
7.24314e-07
6.68475e-07
6.99059e-07
1.29633e-07
3.9345e-07
3.94694e-07
3.95729e-07
3.96762e-07
3.97794e-07
3.98826e-07
3.99856e-07
4.00886e-07
4.01915e-07
4.02944e-07
4.03971e-07
4.04998e-07
4.06024e-07
4.0705e-07
4.08075e-07
4.09099e-07
4.10122e-07
4.11145e-07
4.12166e-07
4.13187e-07
4.14208e-07
4.15227e-07
4.16246e-07
4.17264e-07
4.18281e-07
4.19297e-07
4.20313e-07
4.21328e-07
4.22342e-07
4.23355e-07
4.24368e-07
4.25379e-07
4.2639e-07
4.274e-07
4.28409e-07
4.29417e-07
4.30425e-07
4.31431e-07
4.32437e-07
4.33442e-07
4.34446e-07
4.36222e-07
9.70243e-07
9.55807e-07
9.53344e-07
8.92385e-07
6.06498e-07
4.05e-07
6.92331e-07
1.29502e-07
3.9345e-07
3.94694e-07
3.95729e-07
3.96762e-07
3.97794e-07
3.98826e-07
3.99856e-07
4.00886e-07
4.01915e-07
4.02944e-07
4.03971e-07
4.04998e-07
4.06024e-07
4.0705e-07
4.08075e-07
4.09099e-07
4.10122e-07
4.11145e-07
4.12166e-07
4.13187e-07
4.14208e-07
4.15227e-07
4.16246e-07
4.17264e-07
4.18281e-07
4.19297e-07
4.20313e-07
4.21328e-07
4.22342e-07
4.23355e-07
4.24368e-07
4.25379e-07
4.2639e-07
4.274e-07
4.28409e-07
4.29417e-07
4.30425e-07
4.31431e-07
4.32437e-07
4.33442e-07
4.34446e-07
4.36222e-07
9.67723e-07
9.41234e-07
8.78863e-07
8.14531e-07
7.34809e-07
6.66414e-07
5.54744e-08
3.92282e-07
3.9366e-07
3.94695e-07
3.9573e-07
3.96762e-07
3.97794e-07
3.98826e-07
3.99856e-07
4.00886e-07
4.01915e-07
4.02944e-07
4.03971e-07
4.04998e-07
4.06024e-07
4.0705e-07
4.08075e-07
4.09099e-07
4.10122e-07
4.11145e-07
4.12166e-07
4.13187e-07
4.14208e-07
4.15227e-07
4.16246e-07
4.17264e-07
4.18281e-07
4.19297e-07
4.20313e-07
4.21328e-07
4.22342e-07
4.23355e-07
4.24368e-07
4.25379e-07
4.2639e-07
4.274e-07
4.28409e-07
4.29417e-07
4.30425e-07
4.31431e-07
4.32437e-07
4.33442e-07
4.34446e-07
4.36222e-07
9.75383e-07
9.07861e-07
9.12144e-07
8.35922e-07
6.16325e-07
6.92721e-07
5.60944e-08
5.04688e-07
5.0639e-07
5.07529e-07
5.08666e-07
5.09803e-07
5.10938e-07
5.12071e-07
5.13204e-07
5.14335e-07
5.15463e-07
5.16591e-07
5.17717e-07
5.1884e-07
5.19963e-07
5.21084e-07
5.22203e-07
5.23321e-07
5.24437e-07
5.25551e-07
5.26664e-07
5.27775e-07
5.28884e-07
5.29992e-07
5.31098e-07
5.32202e-07
5.33306e-07
5.34407e-07
5.35506e-07
5.36604e-07
5.37701e-07
5.38795e-07
5.39888e-07
5.40979e-07
5.42068e-07
5.43156e-07
5.44243e-07
5.45327e-07
5.4641e-07
5.47492e-07
5.4857e-07
5.49649e-07
5.50725e-07
5.5304e-07
9.67068e-07
9.08993e-07
5.51713e-07
8.92946e-07
8.21862e-07
6.70941e-07
8.21935e-08
1.84254e-07
5.06046e-07
5.07531e-07
5.08668e-07
5.09804e-07
5.10939e-07
5.12072e-07
5.13204e-07
5.14335e-07
5.15463e-07
5.16591e-07
5.17717e-07
5.1884e-07
5.19963e-07
5.21084e-07
5.22203e-07
5.23321e-07
5.24437e-07
5.25551e-07
5.26664e-07
5.27775e-07
5.28884e-07
5.29992e-07
5.31098e-07
5.32202e-07
5.33305e-07
5.34407e-07
5.35506e-07
5.36604e-07
5.37701e-07
5.38795e-07
5.39888e-07
5.40979e-07
5.42068e-07
5.43157e-07
5.44243e-07
5.45327e-07
5.4641e-07
5.47492e-07
5.4857e-07
5.49649e-07
5.50725e-07
5.5304e-07
9.19927e-07
5.92888e-07
5.85046e-07
8.81446e-07
5.9785e-07
7.19926e-07
7.6971e-07
1.8395e-07
5.06041e-07
5.07528e-07
5.08666e-07
5.09803e-07
5.10938e-07
5.12071e-07
5.13204e-07
5.14335e-07
5.15463e-07
5.16591e-07
5.17717e-07
5.1884e-07
5.19963e-07
5.21084e-07
5.22203e-07
5.23321e-07
5.24437e-07
5.25551e-07
5.26664e-07
5.27775e-07
5.28884e-07
5.29992e-07
5.31098e-07
5.32202e-07
5.33305e-07
5.34407e-07
5.35506e-07
5.36604e-07
5.37701e-07
5.38795e-07
5.39888e-07
5.40979e-07
5.42068e-07
5.43157e-07
5.44243e-07
5.45327e-07
5.4641e-07
5.47492e-07
5.4857e-07
5.49649e-07
5.50725e-07
5.5304e-07
9.06899e-07
4.62259e-07
9.09052e-07
8.66093e-07
4.88795e-07
7.07948e-07
7.74967e-07
5.20249e-08
5.06034e-07
5.07524e-07
5.08663e-07
5.09801e-07
5.10937e-07
5.12071e-07
5.13203e-07
5.14334e-07
5.15463e-07
5.1659e-07
5.17717e-07
5.1884e-07
5.19963e-07
5.21084e-07
5.22203e-07
5.23321e-07
5.24437e-07
5.25551e-07
5.26664e-07
5.27775e-07
5.28884e-07
5.29992e-07
5.31099e-07
5.32202e-07
5.33306e-07
5.34407e-07
5.35506e-07
5.36604e-07
5.37701e-07
5.38795e-07
5.39888e-07
5.40979e-07
5.42068e-07
5.43156e-07
5.44243e-07
5.45327e-07
5.4641e-07
5.47492e-07
5.4857e-07
5.49649e-07
5.50725e-07
5.5304e-07
8.67739e-07
8.28404e-07
4.88923e-07
3.25323e-07
2.49907e-07
6.7082e-07
9.31281e-07
5.6094e-08
5.06029e-07
5.07521e-07
5.08661e-07
5.098e-07
5.10937e-07
5.1207e-07
5.13203e-07
5.14334e-07
5.15463e-07
5.1659e-07
5.17717e-07
5.1884e-07
5.19963e-07
5.21084e-07
5.22203e-07
5.23321e-07
5.24437e-07
5.25551e-07
5.26664e-07
5.27775e-07
5.28884e-07
5.29992e-07
5.31099e-07
5.32202e-07
5.33306e-07
5.34407e-07
5.35506e-07
5.36604e-07
5.37701e-07
5.38795e-07
5.39888e-07
5.40979e-07
5.42068e-07
5.43156e-07
5.44243e-07
5.45327e-07
5.4641e-07
5.47492e-07
5.4857e-07
5.49649e-07
5.50725e-07
5.5304e-07
5.36193e-07
3.85108e-07
8.04868e-07
8.65944e-07
3.43568e-07
7.30096e-07
9.31421e-07
6.14886e-08
5.06028e-07
5.07521e-07
5.08661e-07
5.098e-07
5.10936e-07
5.1207e-07
5.13203e-07
5.14334e-07
5.15463e-07
5.1659e-07
5.17716e-07
5.1884e-07
5.19963e-07
5.21084e-07
5.22203e-07
5.23321e-07
5.24437e-07
5.25551e-07
5.26664e-07
5.27775e-07
5.28884e-07
5.29992e-07
5.31099e-07
5.32202e-07
5.33306e-07
5.34407e-07
5.35506e-07
5.36604e-07
5.37701e-07
5.38795e-07
5.39888e-07
5.40979e-07
5.42068e-07
5.43156e-07
5.44243e-07
5.45327e-07
5.4641e-07
5.47492e-07
5.4857e-07
5.49649e-07
5.50725e-07
5.5304e-07
8.7235e-07
1.50764e-07
6.07419e-07
7.50588e-07
9.2148e-07
7.39523e-07
7.72402e-07
5.3314e-08
5.0603e-07
5.07522e-07
5.08661e-07
5.098e-07
5.10936e-07
5.1207e-07
5.13203e-07
5.14334e-07
5.15463e-07
5.1659e-07
5.17716e-07
5.1884e-07
5.19963e-07
5.21084e-07
5.22203e-07
5.23321e-07
5.24437e-07
5.25551e-07
5.26664e-07
5.27775e-07
5.28884e-07
5.29992e-07
5.31098e-07
5.32202e-07
5.33306e-07
5.34407e-07
5.35506e-07
5.36604e-07
5.37701e-07
5.38795e-07
5.39888e-07
5.40979e-07
5.42068e-07
5.43156e-07
5.44243e-07
5.45327e-07
5.4641e-07
5.47492e-07
5.4857e-07
5.49649e-07
5.50725e-07
5.5304e-07
9.60218e-07
8.85269e-07
9.19004e-07
6.03048e-07
7.28854e-07
7.4059e-07
7.76286e-07
1.83835e-07
5.06028e-07
5.0752e-07
5.08661e-07
5.098e-07
5.10936e-07
5.1207e-07
5.13203e-07
5.14334e-07
5.15462e-07
5.1659e-07
5.17716e-07
5.1884e-07
5.19963e-07
5.21084e-07
5.22203e-07
5.23321e-07
5.24437e-07
5.25551e-07
5.26664e-07
5.27775e-07
5.28884e-07
5.29992e-07
5.31098e-07
5.32202e-07
5.33306e-07
5.34407e-07
5.35506e-07
5.36604e-07
5.37701e-07
5.38795e-07
5.39888e-07
5.40979e-07
5.42068e-07
5.43156e-07
5.44243e-07
5.45327e-07
5.4641e-07
5.47492e-07
5.48571e-07
5.49649e-07
5.50725e-07
5.5304e-07
9.63969e-07
8.87466e-07
7.23676e-07
8.66705e-07
5.81521e-07
5.4746e-07
7.64459e-07
1.83944e-07
5.0603e-07
5.07521e-07
5.08661e-07
5.098e-07
5.10937e-07
5.1207e-07
5.13203e-07
5.14334e-07
5.15463e-07
5.1659e-07
5.17717e-07
5.1884e-07
5.19963e-07
5.21084e-07
5.22203e-07
5.23321e-07
5.24437e-07
5.25551e-07
5.26664e-07
5.27775e-07
5.28884e-07
5.29992e-07
5.31098e-07
5.32202e-07
5.33306e-07
5.34407e-07
5.35506e-07
5.36604e-07
5.37701e-07
5.38795e-07
5.39888e-07
5.40979e-07
5.42068e-07
5.43156e-07
5.44243e-07
5.45327e-07
5.4641e-07
5.47492e-07
5.4857e-07
5.49649e-07
5.50725e-07
5.5304e-07
9.73463e-07
8.4545e-07
8.60041e-07
8.37083e-07
7.60921e-07
6.21961e-07
8.19831e-08
5.04662e-07
5.06379e-07
5.07523e-07
5.08663e-07
5.09801e-07
5.10937e-07
5.12071e-07
5.13203e-07
5.14334e-07
5.15463e-07
5.1659e-07
5.17717e-07
5.1884e-07
5.19963e-07
5.21084e-07
5.22203e-07
5.23321e-07
5.24437e-07
5.25551e-07
5.26664e-07
5.27775e-07
5.28884e-07
5.29992e-07
5.31098e-07
5.32202e-07
5.33306e-07
5.34407e-07
5.35506e-07
5.36604e-07
5.37701e-07
5.38795e-07
5.39888e-07
5.40979e-07
5.42068e-07
5.43156e-07
5.44243e-07
5.45327e-07
5.4641e-07
5.47492e-07
5.4857e-07
5.49649e-07
5.50725e-07
5.5304e-07
9.54899e-07
9.43432e-07
8.95189e-07
4.5515e-07
6.05748e-07
7.22987e-07
5.59018e-08
3.92291e-07
3.93664e-07
3.94698e-07
3.95731e-07
3.96763e-07
3.97795e-07
3.98826e-07
3.99856e-07
4.00886e-07
4.01915e-07
4.02944e-07
4.03971e-07
4.04998e-07
4.06024e-07
4.0705e-07
4.08075e-07
4.09099e-07
4.10122e-07
4.11145e-07
4.12166e-07
4.13187e-07
4.14208e-07
4.15227e-07
4.16246e-07
4.17264e-07
4.18281e-07
4.19297e-07
4.20313e-07
4.21328e-07
4.22342e-07
4.23355e-07
4.24367e-07
4.25379e-07
4.2639e-07
4.274e-07
4.28409e-07
4.29417e-07
4.30425e-07
4.31431e-07
4.32437e-07
4.33442e-07
4.34446e-07
4.36222e-07
9.60081e-07
9.35581e-07
9.00556e-07
4.81225e-07
9.00864e-07
7.02121e-07
8.20835e-08
1.84258e-07
3.93456e-07
3.94698e-07
3.95731e-07
3.96763e-07
3.97795e-07
3.98826e-07
3.99856e-07
4.00886e-07
4.01915e-07
4.02944e-07
4.03971e-07
4.04998e-07
4.06024e-07
4.0705e-07
4.08075e-07
4.09099e-07
4.10122e-07
4.11145e-07
4.12166e-07
4.13187e-07
4.14208e-07
4.15227e-07
4.16246e-07
4.17264e-07
4.18281e-07
4.19297e-07
4.20313e-07
4.21328e-07
4.22342e-07
4.23355e-07
4.24367e-07
4.25379e-07
4.2639e-07
4.274e-07
4.28409e-07
4.29417e-07
4.30425e-07
4.31431e-07
4.32437e-07
4.33442e-07
4.34446e-07
4.36222e-07
9.64707e-07
9.26223e-07
8.77735e-07
8.96579e-07
8.37548e-07
7.58064e-07
7.69818e-07
1.83954e-07
3.93454e-07
3.94697e-07
3.95731e-07
3.96763e-07
3.97795e-07
3.98826e-07
3.99856e-07
4.00886e-07
4.01915e-07
4.02944e-07
4.03971e-07
4.04998e-07
4.06024e-07
4.0705e-07
4.08075e-07
4.09099e-07
4.10122e-07
4.11145e-07
4.12166e-07
4.13187e-07
4.14208e-07
4.15227e-07
4.16246e-07
4.17264e-07
4.18281e-07
4.19297e-07
4.20313e-07
4.21328e-07
4.22342e-07
4.23355e-07
4.24367e-07
4.25379e-07
4.2639e-07
4.274e-07
4.28409e-07
4.29417e-07
4.30425e-07
4.31431e-07
4.32437e-07
4.33442e-07
4.34446e-07
4.36222e-07
9.26039e-07
9.48706e-07
9.11842e-07
9.25383e-07
8.80197e-07
6.96083e-07
7.75724e-07
5.2025e-08
3.93452e-07
3.94696e-07
3.9573e-07
3.96762e-07
3.97794e-07
3.98826e-07
3.99856e-07
4.00886e-07
4.01915e-07
4.02944e-07
4.03971e-07
4.04998e-07
4.06024e-07
4.0705e-07
4.08075e-07
4.09099e-07
4.10122e-07
4.11145e-07
4.12166e-07
4.13187e-07
4.14208e-07
4.15227e-07
4.16246e-07
4.17264e-07
4.18281e-07
4.19297e-07
4.20313e-07
4.21328e-07
4.22342e-07
4.23355e-07
4.24367e-07
4.25379e-07
4.2639e-07
4.274e-07
4.28409e-07
4.29417e-07
4.30425e-07
4.31431e-07
4.32437e-07
4.33442e-07
4.34446e-07
4.36222e-07
9.18362e-07
8.79069e-07
2.13211e-07
4.42336e-07
4.31104e-07
6.67587e-07
9.31734e-07
5.60111e-08
3.9345e-07
3.94694e-07
3.95729e-07
3.96762e-07
3.97794e-07
3.98826e-07
3.99856e-07
4.00886e-07
4.01915e-07
4.02943e-07
4.03971e-07
4.04998e-07
4.06024e-07
4.0705e-07
4.08075e-07
4.09099e-07
4.10122e-07
4.11145e-07
4.12166e-07
4.13187e-07
4.14208e-07
4.15227e-07
4.16246e-07
4.17264e-07
4.18281e-07
4.19297e-07
4.20313e-07
4.21328e-07
4.22342e-07
4.23355e-07
4.24367e-07
4.25379e-07
4.2639e-07
4.274e-07
4.28409e-07
4.29417e-07
4.30425e-07
4.31431e-07
4.32437e-07
4.33442e-07
4.34446e-07
4.36222e-07
5.19258e-07
1.82724e-07
1.96223e-07
8.21799e-07
7.55726e-07
5.96794e-07
9.31619e-07
6.14121e-08
3.9345e-07
3.94694e-07
3.95729e-07
3.96762e-07
3.97794e-07
3.98826e-07
3.99856e-07
4.00886e-07
4.01915e-07
4.02943e-07
4.03971e-07
4.04998e-07
4.06024e-07
4.0705e-07
4.08075e-07
4.09099e-07
4.10122e-07
4.11145e-07
4.12166e-07
4.13187e-07
4.14208e-07
4.15227e-07
4.16246e-07
4.17264e-07
4.18281e-07
4.19297e-07
4.20313e-07
4.21328e-07
4.22342e-07
4.23355e-07
4.24367e-07
4.25379e-07
4.2639e-07
4.274e-07
4.28409e-07
4.29417e-07
4.30425e-07
4.31431e-07
4.32437e-07
4.33442e-07
4.34446e-07
4.36222e-07
7.22477e-07
5.85192e-07
8.62085e-07
3.26022e-07
8.10141e-07
7.38542e-07
7.73098e-07
5.32607e-08
3.9345e-07
3.94695e-07
3.95729e-07
3.96762e-07
3.97794e-07
3.98826e-07
3.99856e-07
4.00886e-07
4.01915e-07
4.02943e-07
4.03971e-07
4.04998e-07
4.06024e-07
4.0705e-07
4.08075e-07
4.09099e-07
4.10122e-07
4.11145e-07
4.12166e-07
4.13187e-07
4.14208e-07
4.15227e-07
4.16246e-07
4.17264e-07
4.18281e-07
4.19297e-07
4.20313e-07
4.21328e-07
4.22342e-07
4.23355e-07
4.24367e-07
4.25379e-07
4.2639e-07
4.274e-07
4.28409e-07
4.29417e-07
4.30425e-07
4.31431e-07
4.32437e-07
4.33442e-07
4.34446e-07
4.36222e-07
9.60101e-07
9.17692e-07
8.91654e-07
3.49773e-07
7.43108e-07
7.44442e-07
7.77613e-07
1.83839e-07
3.9345e-07
3.94694e-07
3.95729e-07
3.96762e-07
3.97794e-07
3.98826e-07
3.99856e-07
4.00886e-07
4.01915e-07
4.02943e-07
4.03971e-07
4.04998e-07
4.06024e-07
4.0705e-07
4.08075e-07
4.09099e-07
4.10122e-07
4.11145e-07
4.12166e-07
4.13187e-07
4.14208e-07
4.15227e-07
4.16246e-07
4.17264e-07
4.18281e-07
4.19297e-07
4.20313e-07
4.21328e-07
4.22342e-07
4.23355e-07
4.24367e-07
4.25379e-07
4.2639e-07
4.274e-07
4.28409e-07
4.29417e-07
4.30425e-07
4.31431e-07
4.32437e-07
4.33442e-07
4.34446e-07
4.36222e-07
9.56559e-07
8.69865e-07
2.22217e-07
7.29702e-07
8.91426e-07
6.00551e-07
7.64737e-07
1.83949e-07
3.9345e-07
3.94694e-07
3.95729e-07
3.96762e-07
3.97794e-07
3.98826e-07
3.99856e-07
4.00886e-07
4.01915e-07
4.02943e-07
4.03971e-07
4.04998e-07
4.06024e-07
4.0705e-07
4.08075e-07
4.09099e-07
4.10122e-07
4.11145e-07
4.12166e-07
4.13187e-07
4.14208e-07
4.15227e-07
4.16246e-07
4.17264e-07
4.18281e-07
4.19297e-07
4.20313e-07
4.21328e-07
4.22342e-07
4.23355e-07
4.24367e-07
4.25379e-07
4.2639e-07
4.274e-07
4.28409e-07
4.29417e-07
4.30425e-07
4.31431e-07
4.32437e-07
4.33442e-07
4.34446e-07
4.36222e-07
9.5906e-07
7.62576e-07
9.23052e-07
8.55353e-07
4.3072e-07
6.45144e-07
8.18618e-08
3.92281e-07
3.9366e-07
3.94695e-07
3.9573e-07
3.96762e-07
3.97794e-07
3.98826e-07
3.99856e-07
4.00886e-07
4.01915e-07
4.02944e-07
4.03971e-07
4.04998e-07
4.06024e-07
4.0705e-07
4.08075e-07
4.09099e-07
4.10122e-07
4.11145e-07
4.12166e-07
4.13187e-07
4.14208e-07
4.15227e-07
4.16246e-07
4.17264e-07
4.18281e-07
4.19297e-07
4.20313e-07
4.21328e-07
4.22342e-07
4.23355e-07
4.24367e-07
4.25379e-07
4.2639e-07
4.274e-07
4.28409e-07
4.29417e-07
4.30425e-07
4.31431e-07
4.32437e-07
4.33442e-07
4.34446e-07
4.36222e-07
1.36133e-07
6.87621e-07
2.75284e-07
7.09908e-07
1.89135e-07
7.2987e-07
3.62651e-07
6.90635e-07
6.9221e-07
7.00709e-07
6.9784e-07
7.62223e-07
7.62243e-07
7.76008e-07
7.00728e-07
6.96457e-07
7.00186e-07
7.28798e-07
7.76613e-07
7.24517e-07
7.75665e-07
7.00809e-07
6.91103e-07
7.0086e-07
7.17677e-07
7.73305e-07
7.06724e-07
7.73418e-07
6.97712e-07
6.74889e-07
7.00454e-07
6.79429e-07
7.71045e-07
7.56376e-07
7.7605e-07
6.99966e-07
6.80383e-07
7.00134e-07
7.53141e-07
7.76297e-07
7.2933e-07
7.74354e-07
6.99333e-07
6.80029e-07
7.01053e-07
7.3833e-07
7.7257e-07
6.81022e-07
7.75245e-07
7.00842e-07
6.55735e-07
7.00409e-07
7.30163e-07
7.7603e-07
5.84301e-07
7.75304e-07
7.00068e-07
6.69206e-07
6.9371e-07
5.30891e-07
7.73898e-07
7.23235e-07
7.67907e-07
6.89879e-07
6.82359e-07
1.70588e-07
6.49821e-07
7.47904e-07
6.79929e-07
2.32018e-07
1.89097e-07
7.22772e-07
3.59983e-07
7.39294e-07
1.89261e-07
7.69244e-07
3.59696e-07
7.61195e-07
7.22581e-07
7.75961e-07
6.7033e-07
7.60716e-07
6.69548e-07
7.75521e-07
7.76672e-07
7.1935e-07
7.75715e-07
7.46755e-07
7.77478e-07
6.75958e-07
7.75969e-07
7.73339e-07
6.81046e-07
7.72547e-07
7.03119e-07
7.73614e-07
7.04374e-07
7.75273e-07
7.71985e-07
7.57696e-07
7.74708e-07
6.34637e-07
7.71219e-07
6.29156e-07
7.76328e-07
7.76154e-07
7.22336e-07
7.73258e-07
6.53496e-07
7.75746e-07
7.34588e-07
7.74763e-07
7.70582e-07
6.85526e-07
7.76479e-07
7.23637e-07
7.71593e-07
6.73334e-07
7.75151e-07
7.75348e-07
5.77454e-07
7.74948e-07
7.32961e-07
7.75016e-07
5.80637e-07
7.75107e-07
7.73784e-07
7.11503e-07
7.67388e-07
6.03899e-07
7.73936e-07
6.50938e-07
7.65775e-07
7.40045e-07
6.11177e-07
2.32294e-07
6.1081e-07
7.36793e-07
6.69373e-07
2.34397e-07
1.89455e-07
7.26906e-07
3.60644e-07
6.83293e-07
1.36349e-07
6.90026e-07
2.77576e-07
7.61558e-07
6.85294e-07
7.75866e-07
4.58696e-07
6.90472e-07
6.76529e-07
7.00679e-07
7.77871e-07
7.12036e-07
7.75324e-07
6.74304e-07
7.00607e-07
6.88986e-07
7.00238e-07
7.73683e-07
6.98426e-07
7.74127e-07
6.72694e-07
6.99007e-07
6.29294e-07
7.00446e-07
7.71352e-07
6.13339e-07
7.75119e-07
6.77345e-07
6.98505e-07
6.81907e-07
6.99921e-07
7.75658e-07
7.32303e-07
7.74769e-07
5.11681e-07
7.0032e-07
6.81914e-07
7.0022e-07
7.68885e-07
6.92124e-07
7.7381e-07
6.81505e-07
6.99438e-07
6.81912e-07
6.99424e-07
7.75144e-07
6.14813e-07
7.7539e-07
6.89137e-07
7.00345e-07
6.34519e-07
7.00412e-07
7.74081e-07
6.17078e-07
7.65659e-07
5.02746e-07
7.00009e-07
6.82202e-07
6.93423e-07
7.42741e-07
6.72181e-07
2.33012e-07
6.10517e-07
6.89845e-07
6.57163e-07
1.69066e-07
8.84634e-07
8.45231e-07
8.88536e-07
7.95433e-07
7.60189e-07
8.46588e-07
9.1611e-07
7.59904e-07
6.97045e-07
6.72204e-07
7.32365e-07
7.20522e-07
6.94475e-07
7.60965e-07
1.29567e-07
4.31532e-08
1.29568e-07
5.58685e-08
1.83835e-07
6.38943e-08
1.83837e-07
8.85462e-07
8.49971e-07
8.02024e-07
8.46826e-07
8.97031e-07
9.17258e-07
8.00202e-07
7.39209e-07
6.93839e-07
6.57333e-07
7.66893e-07
7.67623e-07
6.81063e-07
6.85297e-07
1.29421e-07
4.46312e-07
3.51617e-08
8.21618e-08
1.83542e-07
5.23959e-07
5.19795e-08
7.38736e-07
4.68681e-07
6.04058e-07
5.08661e-07
6.37785e-07
3.72256e-07
5.93893e-07
7.66411e-07
6.97924e-07
6.07572e-07
7.5616e-07
7.72825e-07
6.50322e-07
6.98212e-07
3.52769e-08
6.98781e-07
3.60886e-08
7.69827e-07
5.19816e-08
7.76209e-07
5.34702e-08
8.66646e-07
8.18863e-07
8.76118e-07
4.41064e-07
6.95082e-07
5.9507e-07
8.40184e-07
5.73966e-07
6.96588e-07
6.73947e-07
7.36451e-07
7.71051e-07
6.93967e-07
4.42002e-07
4.10634e-08
7.00189e-07
9.54649e-08
7.75548e-07
6.07338e-08
7.72487e-07
1.3661e-07
7.41757e-07
6.31224e-07
5.30117e-07
2.66758e-07
3.28773e-07
4.04375e-07
4.49104e-07
7.4807e-07
6.94488e-07
6.486e-07
7.16635e-07
7.62313e-07
6.73444e-07
6.87982e-07
1.34324e-07
9.03104e-07
2.18087e-07
9.32155e-07
1.88571e-07
9.32226e-07
2.88392e-07
3.88363e-07
8.92717e-07
8.82981e-07
2.96655e-07
2.97533e-07
9.05474e-07
9.17172e-07
7.18642e-07
6.97312e-07
4.29728e-07
7.50567e-07
7.74844e-07
5.622e-07
6.48771e-07
2.24739e-07
9.02885e-07
1.2807e-07
9.31863e-07
2.95307e-07
9.30819e-07
1.79525e-07
8.51183e-07
6.97125e-07
8.09956e-07
8.60348e-07
8.96128e-07
8.52003e-07
8.92306e-07
7.59064e-07
6.93883e-07
6.85005e-07
7.48151e-07
7.65549e-07
7.2664e-07
6.91954e-07
8.83379e-08
7.01056e-07
4.09012e-08
7.69756e-07
1.26911e-07
7.77151e-07
6.04731e-08
8.6338e-07
5.70729e-07
3.47956e-07
7.59474e-07
8.87702e-07
7.3991e-07
2.99878e-07
7.6226e-07
6.94066e-07
6.91913e-07
7.08862e-07
7.68073e-07
6.83305e-07
6.92595e-07
3.6224e-08
6.95213e-07
3.50575e-08
7.76408e-07
5.36625e-08
7.70213e-07
5.19831e-08
2.35247e-07
8.36823e-07
8.37838e-07
4.68306e-07
2.53713e-07
9.27396e-07
8.5949e-07
6.12265e-07
6.92365e-07
4.21733e-07
4.97116e-07
7.55867e-07
5.56272e-07
5.15921e-07
3.52088e-08
7.57193e-08
1.29426e-07
7.64442e-07
5.19787e-08
1.09645e-07
1.83547e-07
6.25897e-07
7.3691e-07
6.51343e-07
6.42572e-07
1.21336e-07
4.65371e-07
3.80247e-07
7.55995e-07
6.97475e-07
6.4502e-07
6.894e-07
7.70799e-07
6.6144e-07
6.92768e-07
1.29565e-07
3.82413e-08
1.29566e-07
8.17883e-08
1.83826e-07
5.68002e-08
1.8383e-07
5.163e-07
5.87267e-07
6.4235e-07
4.35505e-07
4.15347e-07
5.58048e-07
5.61022e-07
6.82409e-07
7.15163e-07
6.69568e-07
6.85367e-07
7.0163e-07
6.83915e-07
7.13638e-07
1.83831e-07
6.40104e-08
1.83833e-07
5.62692e-08
1.83831e-07
6.40657e-08
1.83834e-07
8.41295e-07
8.41428e-07
7.93846e-07
8.28501e-07
8.68698e-07
7.78334e-07
6.85633e-07
6.71084e-07
7.66203e-07
5.31173e-07
6.71888e-07
6.74491e-07
7.64973e-07
5.9936e-07
1.83539e-07
5.20436e-07
5.1979e-08
8.21382e-08
1.83539e-07
5.14347e-07
5.19791e-08
5.38241e-07
5.06722e-07
5.4938e-07
6.8003e-07
7.53769e-07
6.97194e-07
7.32916e-07
7.5287e-07
7.54131e-07
4.3716e-07
7.28046e-07
7.5336e-07
7.56184e-07
4.64237e-07
5.19812e-08
7.76526e-07
5.35272e-08
7.69904e-07
5.19813e-08
7.77157e-07
5.35258e-08
3.56686e-07
3.23684e-07
8.59831e-07
8.56724e-07
8.23081e-07
5.52663e-07
8.21757e-07
6.57094e-07
7.67167e-07
6.84608e-07
7.09467e-07
7.18436e-07
7.60061e-07
6.67663e-07
6.07852e-08
7.74398e-07
1.36542e-07
7.7508e-07
6.07654e-08
7.72144e-07
1.36543e-07
4.94622e-07
6.01092e-07
4.72425e-07
4.10204e-07
7.80829e-07
4.42023e-07
4.88267e-07
7.24937e-07
7.45343e-07
6.81836e-07
6.41034e-07
7.18974e-07
7.44222e-07
5.8784e-07
1.8872e-07
9.31763e-07
2.87237e-07
9.3196e-07
1.88945e-07
9.31635e-07
2.86741e-07
2.98134e-07
9.04302e-07
8.46557e-07
5.02486e-07
5.75588e-07
9.06418e-07
9.13664e-07
7.50225e-07
7.67561e-07
5.77712e-07
7.05375e-07
7.50036e-07
7.64465e-07
5.62175e-07
2.95066e-07
9.31225e-07
1.79575e-07
9.31135e-07
2.94077e-07
9.30389e-07
1.79506e-07
9.06014e-07
9.24665e-07
8.22724e-07
8.58594e-07
8.84189e-07
8.72502e-07
9.11206e-07
7.51736e-07
7.49706e-07
6.08578e-07
6.72207e-07
7.52782e-07
7.45022e-07
5.83961e-07
1.26954e-07
7.77166e-07
6.05289e-08
7.747e-07
1.269e-07
7.76777e-07
6.05213e-08
8.40954e-07
4.49485e-07
3.13359e-07
7.90922e-07
8.60397e-07
5.76774e-07
3.18002e-07
7.67947e-07
7.66925e-07
4.99571e-07
7.4536e-07
7.68076e-07
7.65628e-07
4.72489e-07
5.37137e-08
7.69944e-07
5.19827e-08
7.77355e-07
5.37111e-08
7.70147e-07
5.19828e-08
2.6143e-07
8.19206e-07
4.99484e-07
8.9064e-07
2.35612e-07
8.44417e-07
5.43207e-07
6.89225e-07
7.28994e-07
2.97336e-07
5.64169e-07
6.49266e-07
7.22302e-07
2.7129e-07
5.19781e-08
1.09687e-07
1.83542e-07
7.64581e-07
5.19782e-08
1.09691e-07
1.83543e-07
1.3117e-07
3.37762e-07
4.20513e-07
5.30294e-07
3.10623e-07
3.86996e-07
5.14392e-07
7.40024e-07
7.47369e-07
6.85297e-07
6.15537e-07
7.4326e-07
7.36299e-07
6.51642e-07
1.8382e-07
5.7227e-08
1.83824e-07
8.20338e-08
1.8382e-07
5.67835e-08
1.83825e-07
4.23619e-07
4.74153e-07
4.32293e-07
4.19234e-07
4.58206e-07
4.36517e-07
2.10904e-07
7.05915e-07
7.31335e-07
6.38399e-07
7.27793e-07
6.88614e-07
5.98782e-07
7.4259e-07
1.83835e-07
6.40023e-08
1.83837e-07
3.77195e-08
1.29567e-07
4.30048e-08
1.29568e-07
8.25488e-07
9.12339e-07
7.3256e-07
8.66031e-07
6.82135e-07
8.6253e-07
7.34405e-07
7.01318e-07
7.66184e-07
6.30157e-07
5.76919e-07
6.80886e-07
7.71823e-07
6.01566e-07
1.83542e-07
5.1819e-07
5.19795e-08
5.61117e-08
1.29421e-07
4.37063e-07
3.51618e-08
8.92864e-07
8.71717e-07
7.75306e-07
7.58819e-07
8.70107e-07
8.25597e-07
6.47536e-07
7.44749e-07
7.67671e-07
4.29184e-07
7.57835e-07
7.48123e-07
7.65375e-07
4.61711e-07
5.19815e-08
7.76574e-07
5.34684e-08
6.9445e-07
3.51792e-08
6.98826e-07
3.60862e-08
7.33497e-07
2.89279e-07
8.68971e-07
8.33572e-07
6.1291e-07
1.49129e-07
7.9661e-07
5.85661e-07
7.57201e-07
6.63652e-07
6.7491e-07
5.45228e-07
7.63483e-07
6.84023e-07
6.07063e-08
7.74953e-07
1.36497e-07
7.01513e-07
4.10472e-08
7.00976e-07
9.54728e-08
8.77351e-07
4.1142e-07
4.26576e-07
3.79469e-07
6.19379e-07
6.43001e-07
2.55551e-07
7.68605e-07
7.51404e-07
5.80779e-07
6.8379e-07
7.58334e-07
7.56637e-07
6.12296e-07
1.88944e-07
9.31846e-07
2.87362e-07
9.02783e-07
1.34411e-07
9.03051e-07
2.18536e-07
6.47416e-07
9.06968e-07
8.95867e-07
4.00051e-07
2.68096e-07
8.66226e-07
8.52375e-07
7.6167e-07
7.65482e-07
5.37046e-07
5.84016e-07
7.66198e-07
7.70748e-07
5.8214e-07
2.95345e-07
9.31671e-07
1.79669e-07
9.0308e-07
2.24994e-07
9.02512e-07
1.28016e-07
8.81681e-07
2.97314e-07
9.0505e-07
8.52559e-07
8.72358e-07
8.70121e-07
8.69994e-07
7.54506e-07
7.55283e-07
6.5073e-07
7.17038e-07
7.54875e-07
7.58423e-07
7.43601e-07
1.26872e-07
7.76633e-07
6.04613e-08
7.00548e-07
8.82554e-08
7.01057e-07
4.09099e-08
8.41177e-07
7.71125e-07
6.10586e-07
6.55761e-07
8.45952e-07
2.93387e-07
6.40317e-07
7.63983e-07
7.67687e-07
5.1453e-07
7.33401e-07
7.62524e-07
7.68528e-07
5.19665e-07
5.36595e-08
7.70365e-07
5.19831e-08
6.99214e-07
3.62115e-08
6.94063e-07
3.50575e-08
2.4726e-07
4.17065e-07
4.86176e-07
8.63447e-07
4.38104e-07
7.64068e-07
6.33934e-07
5.78236e-07
7.36483e-07
3.01529e-07
5.87103e-07
5.71362e-07
7.4782e-07
3.12152e-07
5.19786e-08
1.09649e-07
1.83547e-07
6.92296e-07
3.51415e-08
7.56506e-08
1.29426e-07
3.34189e-07
3.55057e-07
5.98735e-07
6.03456e-07
4.38576e-07
5.27507e-07
5.90847e-07
7.66623e-07
7.43299e-07
6.35314e-07
6.65762e-07
7.57609e-07
7.47984e-07
6.45766e-07
1.83826e-07
5.67603e-08
1.8383e-07
5.55357e-08
1.29565e-07
3.83207e-08
1.29566e-07
7.63856e-07
6.96202e-07
1.43921e-07
1.89989e-07
1.99906e-07
6.93565e-07
7.70637e-07
7.65659e-07
6.82526e-07
6.92973e-07
7.40265e-07
7.30737e-07
7.62564e-07
6.91479e-07
7.73088e-07
1.63737e-07
6.98585e-07
3.63372e-07
2.26046e-07
7.74952e-07
6.97412e-07
7.45136e-07
7.23922e-07
7.34492e-07
6.95422e-07
6.85951e-07
7.26726e-07
7.4832e-07
7.59142e-07
1.8934e-07
7.69077e-07
2.00733e-07
1.99695e-07
7.5453e-07
7.69918e-07
7.63452e-07
7.26423e-07
7.05283e-07
7.67536e-07
7.09836e-07
7.58331e-07
7.63236e-07
7.73726e-07
3.64062e-07
2.25471e-07
7.72525e-07
2.25576e-07
7.73594e-07
7.72004e-07
7.71603e-07
7.0027e-07
6.94293e-07
7.64928e-07
7.76641e-07
7.68903e-07
6.97559e-07
7.25083e-07
6.62096e-07
6.3222e-07
7.6236e-07
5.52025e-07
7.27261e-07
6.96945e-07
7.69859e-07
6.98201e-07
6.97631e-07
7.77038e-07
7.72311e-07
7.71528e-07
6.98633e-07
7.19592e-07
7.56804e-07
7.65472e-07
5.75588e-07
7.65644e-07
6.55758e-07
7.00193e-07
7.70189e-07
7.63711e-07
7.75245e-07
7.67824e-07
7.75818e-07
7.68176e-07
7.69754e-07
6.32349e-07
7.09283e-07
3.75279e-07
7.16939e-07
4.12895e-07
7.23421e-07
5.6595e-07
7.68766e-07
7.76675e-07
7.7014e-07
7.68293e-07
7.70538e-07
7.69227e-07
7.69458e-07
7.70295e-07
7.00362e-07
7.00613e-07
7.76976e-07
7.74831e-07
7.7719e-07
6.98635e-07
7.47021e-07
4.57251e-07
6.97517e-07
7.58947e-07
5.01262e-07
7.7098e-07
6.77155e-07