/*--------------------------------*- C++ -*----------------------------------*\
| =========                 |                                                 |
| \\      /  F ield         | OpenFOAM: The Open Source CFD Toolbox           |
|  \\    /   O peration     | Version:  5.0                                   |
|   \\  /    A nd           | Web:      www.OpenFOAM.org                      |
|    \\/     M anipulation  |                                                 |
\*---------------------------------------------------------------------------*/
FoamFile
{
    version     2.0;
    format      ascii;
    class       volVectorField;
    location    "3.6";
    object      U;
}
// * * * * * * * * * * * * * * * * * * * * * * * * * * * * * * * * * * * * * //

dimensions      [0 1 -1 0 0 0 0];

internalField   nonuniform List<vector> 
8570
(
(0.014085 0.000372981 -0.000377878)
(0.00369572 0.00229649 0.000255157)
(-0.0156931 -0.0107855 0.000864908)
(-0.0148039 0.00230065 -0.000379489)
(0.0263838 0.0145542 0.000705595)
(-0.00752866 0.0164953 -0.000912844)
(0.000603345 9.01051e-05 3.07932e-05)
(0.000993967 -3.52502e-05 -4.82433e-07)
(0.000880353 7.14874e-06 -2.30681e-07)
(0.000859568 -6.86523e-06 2.64545e-07)
(0.000845764 -4.33855e-06 1.58871e-07)
(0.000838303 -3.63756e-06 7.42909e-08)
(0.000834418 -2.42606e-06 5.78239e-09)
(0.000831028 -1.24359e-06 5.61172e-08)
(0.000828065 -8.35159e-07 5.13197e-08)
(0.000826065 -6.41855e-07 7.71823e-08)
(0.000824384 -3.68496e-07 5.52345e-08)
(0.000822545 -1.06188e-07 5.49751e-08)
(0.000820557 -1.99954e-07 3.49414e-08)
(0.000819105 -1.86525e-07 8.41268e-08)
(0.000817727 -1.08676e-07 5.30594e-08)
(0.000816063 3.9036e-08 5.73431e-08)
(0.000814483 -9.13729e-09 6.69447e-08)
(0.000812946 2.91285e-09 4.84841e-08)
(0.000811629 1.73635e-07 8.17395e-08)
(0.000810041 1.76405e-07 -4.93303e-09)
(0.000808272 1.83415e-07 5.28052e-08)
(0.000806965 8.96158e-08 5.24513e-08)
(0.000805341 1.96177e-07 3.88388e-09)
(0.000803809 -1.18533e-07 6.40625e-08)
(0.000802197 -4.37234e-07 7.99608e-08)
(0.000800428 -4.75676e-07 -2.86633e-08)
(0.000798852 -3.22132e-07 8.34707e-08)
(0.000797747 1.10071e-07 9.87357e-08)
(0.000796692 1.61236e-07 5.60083e-08)
(0.000794741 3.67135e-07 3.68982e-08)
(0.000792939 1.74281e-07 4.71383e-08)
(0.000791332 3.05522e-07 4.08244e-08)
(0.00079031 5.63519e-07 6.88948e-08)
(0.000789215 2.00708e-07 1.08654e-07)
(0.000787442 4.04792e-08 2.73282e-08)
(0.000785852 9.82485e-10 7.64389e-08)
(0.000784713 -2.27438e-07 -1.66151e-08)
(0.000783128 -3.87495e-07 1.73414e-08)
(0.000781347 -1.27522e-07 3.57964e-08)
(0.000779831 -9.77981e-08 6.21379e-08)
(0.00077863 5.55913e-08 4.8064e-08)
(0.000777584 -1.07386e-07 6.18779e-08)
(0.000775803 -3.81007e-07 4.66486e-08)
(0.000774192 -3.24858e-07 1.64133e-08)
(0.01031 0.000486616 -0.000451542)
(-0.000811296 -0.0166652 0.00118322)
(-0.00871107 -0.00167745 0.000388324)
(0.0369977 -0.00511895 -0.00122928)
(-0.00450244 -0.000703253 -0.000904635)
(0.00375749 -0.00224103 0.000434916)
(0.000363104 -1.5828e-05 5.46031e-05)
(0.000476111 1.97481e-05 -3.5787e-07)
(0.000907155 2.32004e-05 -1.02025e-06)
(0.000835427 2.01756e-06 -3.16189e-07)
(0.000844102 1.34205e-06 1.91771e-07)
(0.000837261 -1.85231e-08 5.72332e-08)
(0.000834187 -2.49073e-07 7.00247e-08)
(0.000831086 -5.79011e-07 5.51525e-08)
(0.000828535 -3.55658e-07 5.49645e-08)
(0.000826367 -2.27e-07 1.10773e-07)
(0.000824405 -6.20625e-09 5.07508e-08)
(0.000822562 8.63276e-08 6.88654e-08)
(0.00082102 3.50727e-07 1.13341e-07)
(0.00081944 2.70364e-07 3.19608e-08)
(0.000817724 2.58899e-07 2.97659e-08)
(0.000816037 1.7622e-07 6.29249e-08)
(0.000814401 3.49315e-07 1.05961e-07)
(0.000813138 3.20208e-07 3.25243e-08)
(0.000811534 1.98938e-07 3.46238e-08)
(0.0008097 -8.40323e-08 4.0937e-08)
(0.000808357 1.95712e-08 3.98229e-08)
(0.000807013 -1.45848e-07 4.77901e-08)
(0.000805241 -4.73966e-07 6.80015e-08)
(0.000803291 -4.61081e-07 1.18723e-08)
(0.000801916 -3.1895e-07 -1.33639e-07)
(0.000800647 -1.37429e-07 1.50347e-08)
(0.000799556 4.08348e-07 1.24535e-07)
(0.000798191 5.78772e-07 4.94944e-08)
(0.000796387 2.84792e-07 4.48404e-08)
(0.000794814 1.83995e-07 7.59375e-08)
(0.000793343 2.70674e-07 4.85533e-08)
(0.000792104 3.49516e-07 1.00749e-08)
(0.000790184 6.03396e-07 1.00459e-07)
(0.000788345 2.7045e-07 7.22821e-08)
(0.000787118 7.53742e-08 6.25996e-08)
(0.000785686 -6.91721e-08 7.43903e-08)
(0.000784068 -1.89856e-07 -8.48521e-09)
(0.000782962 -4.17748e-07 9.09915e-08)
(0.000781762 -7.71279e-08 5.58156e-08)
(0.00078024 -1.16153e-08 5.78346e-08)
(0.000778743 3.54979e-07 5.43089e-08)
(0.000777125 6.92953e-08 2.46493e-08)
(0.000775731 -8.61898e-08 -7.23071e-08)
(0.000774698 -1.7509e-07 1.10919e-07)
(0.00761702 -0.00448346 -0.000199863)
(-0.00792084 -0.00338867 -0.000751481)
(0.025568 0.00724796 -0.00150092)
(-0.00804943 -0.00163738 0.000700142)
(0.00176365 -0.00701697 -0.000184463)
(-0.00126098 -0.00766767 0.000193544)
(0.000831894 0.000584237 0.000138981)
(0.000470464 -1.14368e-05 -9.68202e-07)
(0.000912066 8.89896e-06 -1.89102e-06)
(0.000832211 6.11605e-06 -5.07279e-07)
(0.000843223 3.79819e-06 1.75898e-07)
(0.000836316 2.29158e-06 3.80801e-08)
(0.000833722 1.36053e-06 6.27331e-08)
(0.0008309 8.0804e-07 5.72579e-08)
(0.000828509 5.23802e-07 5.68121e-08)
(0.000826504 3.54634e-07 5.54603e-08)
(0.000824777 2.20493e-07 5.71285e-08)
(0.000822992 1.36298e-07 3.1707e-08)
(0.000820787 5.27988e-08 1.04128e-07)
(0.000818989 9.687e-08 3.79356e-08)
(0.000817608 6.31598e-08 3.76437e-08)
(0.000816173 9.30257e-08 4.83465e-08)
(0.00081466 1.61908e-07 2.42288e-08)
(0.000812755 2.03184e-07 -7.56366e-08)
(0.000811122 3.9613e-08 4.77696e-08)
(0.000809816 1.01707e-07 3.88633e-08)
(0.000808195 9.29244e-08 5.62952e-08)
(0.000806351 -9.86273e-10 5.75099e-08)
(0.00080495 -9.79463e-08 3.48318e-09)
(0.000804008 2.75449e-07 6.74049e-08)
(0.000802605 4.53796e-07 1.66025e-07)
(0.000801337 5.09388e-07 5.71951e-08)
(0.000799745 4.40342e-07 -2.19954e-09)
(0.000797589 1.26749e-07 9.24468e-09)
(0.000796196 -3.16502e-09 8.93397e-08)
(0.000794722 -1.28454e-07 4.24753e-08)
(0.000793144 -2.65032e-08 7.23635e-08)
(0.000791745 -6.89862e-08 5.38102e-08)
(0.000790207 -2.16689e-07 3.01981e-08)
(0.000788552 -1.92274e-08 1.05805e-07)
(0.000787016 -2.46902e-08 7.92082e-08)
(0.000785521 -2.94926e-08 -3.5269e-08)
(0.00078428 2.9894e-07 1.06677e-07)
(0.000783272 3.42442e-07 9.17243e-08)
(0.000781858 2.57827e-07 3.38667e-08)
(0.000780371 2.62398e-07 1.1555e-07)
(0.000778732 2.71042e-07 1.17209e-07)
(0.000777032 3.97985e-07 7.78357e-08)
(0.000775503 2.4289e-07 -2.4402e-08)
(0.000774515 1.43007e-07 1.15046e-07)
(-0.00372314 -0.00248355 0.000542049)
(0.00110987 -0.0101724 0.00257886)
(0.00740342 -0.00644703 0.000570044)
(-0.00454161 -0.00433932 5.08282e-05)
(-0.000218905 0.0130333 -9.43103e-05)
(-0.00146179 0.000795505 0.000106318)
(0.000367909 0.000783214 -1.08201e-06)
(0.000318909 -1.57942e-05 3.84889e-06)
(0.000884932 8.71762e-06 -1.53839e-06)
(0.000829052 7.10488e-06 -3.64842e-07)
(0.000839351 5.51653e-06 1.72354e-07)
(0.000834232 3.92782e-06 3.85337e-08)
(0.000832343 2.46299e-06 6.27537e-08)
(0.000830047 1.69666e-06 5.33685e-08)
(0.000827973 1.25922e-06 5.02972e-08)
(0.000825991 8.28101e-07 4.93677e-08)
(0.000824134 3.39915e-07 5.07765e-08)
(0.000822354 -3.29683e-09 3.86994e-08)
(0.000820972 -2.80516e-07 2.33495e-08)
(0.000819454 -1.949e-07 2.79296e-08)
(0.000817719 -1.12023e-07 5.09308e-08)
(0.00081616 -1.09166e-07 5.08629e-08)
(0.000814537 -1.83849e-07 3.13396e-08)
(0.000812984 -1.26341e-07 8.07055e-08)
(0.000811406 4.73748e-08 2.73304e-08)
(0.000809766 1.71032e-07 3.05457e-08)
(0.000808228 2.24149e-07 6.2694e-08)
(0.000806775 4.58461e-07 5.77391e-08)
(0.000805585 7.78252e-07 -2.96188e-08)
(0.000803978 6.8138e-07 4.32357e-08)
(0.000802203 4.02025e-07 6.21532e-08)
(0.000800625 5.01392e-07 1.71836e-08)
(0.000799074 -3.09915e-08 4.43824e-08)
(0.000797635 -1.07636e-07 5.33693e-08)
(0.000796068 -3.27309e-08 -2.22014e-08)
(0.000794786 -1.50978e-07 6.14276e-08)
(0.000793418 -9.4289e-08 3.99148e-08)
(0.000791867 -1.09081e-08 4.59925e-08)
(0.000790247 -2.48325e-07 1.95238e-08)
(0.000788586 -2.94704e-07 4.86379e-08)
(0.000787105 -1.58979e-08 3.77596e-08)
(0.00078609 1.97281e-07 1.34576e-08)
(0.00078453 3.46062e-07 2.24079e-08)
(0.000782906 4.02682e-07 -6.27108e-08)
(0.000781658 7.82116e-08 3.10577e-08)
(0.000780253 4.67505e-08 4.34714e-08)
(0.000778909 4.51387e-08 7.93139e-08)
(0.000777087 3.02352e-07 4.68687e-08)
(0.000775408 1.59856e-07 4.51589e-08)
(0.000774215 2.61853e-07 1.58448e-07)
(0.00642919 -0.00948864 0.000216396)
(-0.00102631 0.0258406 -0.000293119)
(-0.0127105 0.00109688 -0.00901359)
(-0.0124659 -0.0126083 -0.000827821)
(-0.0016575 -0.0058246 -0.0018824)
(0.00481123 -0.0040696 1.35584e-05)
(0.00101117 0.000652269 1.02993e-05)
(0.000519022 -6.72661e-05 4.1866e-05)
(0.000918978 1.5146e-05 -1.10589e-06)
(0.000828311 9.79982e-06 -6.76038e-07)
(0.000839292 7.65612e-06 1.72279e-07)
(0.000832521 5.10908e-06 4.36676e-08)
(0.000830944 3.57507e-06 1.04717e-07)
(0.000829401 2.12478e-06 4.92014e-08)
(0.000827426 1.07015e-06 4.16797e-08)
(0.000825356 5.63863e-07 3.04221e-08)
(0.000823739 3.8555e-07 4.87989e-08)
(0.000822218 2.37997e-07 5.09223e-08)
(0.00082055 3.04987e-07 2.44099e-07)
(0.000819201 1.88218e-07 7.30925e-08)
(0.000817717 -2.48924e-08 6.54687e-08)
(0.000816086 8.46805e-08 6.59065e-08)
(0.00081464 5.60504e-08 1.88537e-08)
(0.000813045 7.11293e-08 7.63756e-08)
(0.000811493 7.40876e-09 7.26056e-08)
(0.000810036 -6.25804e-08 6.72626e-08)
(0.000808551 1.54288e-07 6.8708e-08)
(0.000807038 2.79411e-07 6.76482e-08)
(0.000805222 4.03032e-07 2.30419e-07)
(0.00080353 3.77798e-07 1.77694e-08)
(0.000802373 1.70479e-07 5.73924e-08)
(0.000800791 -1.66523e-07 4.30796e-08)
(0.000798981 7.9222e-08 9.84257e-08)
(0.000797585 6.06782e-08 5.11318e-08)
(0.000796141 1.33706e-07 5.19033e-08)
(0.000794645 7.76904e-08 5.15248e-08)
(0.000793319 -7.87265e-08 3.19836e-08)
(0.000791554 -2.81047e-07 5.05823e-08)
(0.000789855 -2.23027e-07 4.74537e-08)
(0.000788844 -2.64891e-07 8.68483e-08)
(0.000787632 -1.4612e-08 5.82628e-08)
(0.000785971 1.69241e-07 1.27277e-07)
(0.000784533 -9.72741e-08 1.32261e-08)
(0.000782934 4.28331e-08 -1.80407e-07)
(0.000781411 -1.27561e-07 4.11761e-08)
(0.000780329 -2.18556e-07 5.08074e-08)
(0.00077905 -5.26346e-07 1.07096e-08)
(0.000777175 -8.23963e-07 3.28908e-08)
(0.000775446 -3.23226e-07 6.19786e-08)
(0.000773991 3.94091e-08 5.07771e-08)
(-0.00348304 -0.00227999 -0.000233945)
(0.0225621 0.0263793 -0.00625275)
(-0.00262782 -0.00275341 0.000967771)
(-0.00171034 0.0092285 0.000265937)
(-0.0195877 0.00242143 0.00123466)
(0.000457999 0.00342566 7.69135e-05)
(0.0011287 0.000909116 -1.15707e-05)
(0.000505317 2.16907e-05 4.52153e-05)
(0.000906517 2.84411e-05 -1.24659e-06)
(0.000819422 1.85924e-05 -6.1174e-07)
(0.000833501 1.04977e-05 1.67581e-07)
(0.000829136 6.16751e-06 2.02153e-08)
(0.000828615 3.82299e-06 6.2622e-08)
(0.000826917 2.11291e-06 4.3082e-08)
(0.000826023 9.91171e-07 6.7167e-08)
(0.000825137 4.7071e-07 7.05339e-08)
(0.000823728 3.12465e-07 5.06779e-08)
(0.000822253 2.30427e-07 5.51248e-08)
(0.000820909 1.67889e-07 2.67487e-08)
(0.000819041 2.44101e-07 2.00968e-07)
(0.000817589 2.49788e-07 1.063e-08)
(0.000816261 1.8323e-07 4.22928e-08)
(0.00081452 1.43122e-07 5.26911e-08)
(0.000812923 7.13836e-08 4.8862e-08)
(0.00081124 1.37832e-07 5.24336e-08)
(0.00080995 1.55012e-07 2.20618e-08)
(0.000808655 -3.92014e-08 4.01813e-08)
(0.000807083 -1.76999e-07 1.01981e-08)
(0.000805705 -9.35498e-08 3.52812e-08)
(0.000803684 -4.14483e-07 -1.15427e-07)
(0.000801522 -3.16076e-07 2.44972e-08)
(0.00080051 -3.37896e-07 -9.0556e-09)
(0.000799357 -2.73085e-07 1.41353e-08)
(0.000797701 -1.57716e-07 -2.00075e-07)
(0.000796088 -1.76374e-07 -1.34706e-09)
(0.000794519 -6.71433e-08 1.98045e-07)
(0.00079297 -6.1281e-08 6.16999e-08)
(0.000791688 -1.34297e-07 5.14579e-08)
(0.000790269 1.10091e-07 7.15726e-08)
(0.000788847 2.11381e-07 6.93667e-08)
(0.000787648 1.34605e-07 5.48098e-08)
(0.000785986 5.49883e-08 4.58021e-09)
(0.000784372 -3.65879e-08 4.83318e-08)
(0.00078287 -1.74396e-07 5.80801e-08)
(0.000781333 -1.20684e-07 3.98497e-08)
(0.000779758 -2.23119e-07 4.61266e-08)
(0.000778157 -5.3473e-07 -6.82615e-08)
(0.000777346 -7.21833e-07 6.76466e-08)
(0.000776488 -4.78158e-07 9.11444e-08)
(0.000774571 -3.37041e-07 1.32283e-07)
(0.0112665 -0.0104329 -0.000143716)
(-0.00252981 -0.00091703 -0.00381157)
(-0.0016294 -0.00094848 0.00155218)
(0.0228839 -0.000473389 3.8979e-05)
(-0.001877 0.00030326 5.306e-05)
(-0.000691752 0.000458358 7.0726e-05)
(0.000189453 0.000683431 5.82748e-05)
(0.000461797 4.71629e-05 3.19213e-05)
(0.000856362 2.46829e-05 -1.85765e-06)
(0.000805817 1.42868e-05 -3.65716e-07)
(0.000823704 6.92571e-06 1.50565e-07)
(0.00082415 3.67111e-06 2.63415e-08)
(0.000825861 1.73729e-06 4.80045e-08)
(0.000825853 1.00288e-06 4.63583e-08)
(0.00082537 7.01448e-07 5.15329e-08)
(0.000824507 4.36283e-07 5.16032e-08)
(0.000823438 1.47421e-07 5.10088e-08)
(0.000822037 1.00624e-07 5.12821e-08)
(0.000820565 -1.25658e-08 6.09004e-08)
(0.000819302 -1.46481e-07 6.37564e-08)
(0.000817638 8.71628e-08 3.86075e-08)
(0.00081595 -4.84475e-08 4.96672e-08)
(0.000814499 -1.75889e-08 -1.17109e-08)
(0.000813037 -4.83302e-08 5.99771e-08)
(0.000811597 4.70254e-08 4.77794e-09)
(0.000809813 1.46103e-07 8.58428e-08)
(0.000808136 -1.14248e-07 5.74272e-08)
(0.000806971 -2.53027e-07 4.69683e-08)
(0.000804928 -7.63556e-07 -4.68103e-08)
(0.000803255 -9.23671e-07 1.16451e-07)
(0.000802473 -5.86744e-07 -8.12613e-08)
(0.000800849 -9.07166e-08 6.18608e-08)
(0.000799209 -4.13268e-08 4.10987e-08)
(0.000797709 -9.07073e-08 6.63753e-08)
(0.000796256 -1.18221e-07 8.54724e-08)
(0.00079479 -2.19589e-08 1.27769e-07)
(0.000793235 4.8424e-08 5.41235e-08)
(0.000791768 1.7734e-07 4.19247e-08)
(0.000790286 1.22568e-07 3.35885e-08)
(0.000788874 3.6183e-07 1.99015e-08)
(0.000787435 9.88387e-08 3.26043e-08)
(0.000785757 -8.78518e-08 -3.13488e-08)
(0.000784247 -3.15459e-08 6.39049e-08)
(0.000782829 -8.34972e-08 -8.1884e-09)
(0.000781351 -2.63398e-08 1.55045e-08)
(0.000779814 4.52698e-09 5.03858e-08)
(0.000778431 4.55359e-09 -9.85335e-09)
(0.000777251 1.3191e-07 4.96238e-08)
(0.000775937 -2.22683e-07 3.50662e-08)
(0.000775008 -3.24892e-07 5.56022e-08)
(0.0036865 -0.0057877 1.818e-05)
(-0.000786099 -0.00210798 0.000146399)
(0.00280698 0.00376548 -0.000297773)
(0.00359168 -0.00942117 -0.000176268)
(-0.0140508 0.00103649 0.000672894)
(-0.00152463 -0.00819543 0.000259487)
(0.000599002 0.000271562 8.1484e-06)
(0.000429878 2.87779e-05 1.23034e-06)
(0.000841267 -2.15517e-07 -1.43589e-06)
(0.000796866 -1.97911e-06 -6.67719e-07)
(0.000820167 -2.46383e-06 1.29701e-07)
(0.000822618 -1.77492e-06 1.18928e-08)
(0.000825262 -1.2753e-06 4.58661e-08)
(0.000825612 -8.57836e-07 4.20981e-08)
(0.000825309 -5.19644e-07 4.69203e-08)
(0.00082444 -3.3134e-07 4.99581e-08)
(0.000823306 -1.46862e-07 9.75727e-08)
(0.000822052 -1.33522e-07 5.67411e-08)
(0.0008206 -3.38784e-08 -1.20593e-07)
(0.000819165 -2.40694e-08 2.49392e-08)
(0.000817712 -2.21052e-07 5.04268e-08)
(0.000816129 -1.28553e-07 6.51493e-08)
(0.00081452 -2.03813e-07 3.81202e-08)
(0.000813004 -1.37318e-07 4.9864e-08)
(0.000811482 -3.15366e-07 5.61745e-08)
(0.000809748 -3.22655e-07 -1.27191e-07)
(0.000808156 3.59629e-09 3.34283e-08)
(0.000806275 -1.31605e-07 4.20289e-08)
(0.000804872 -2.75305e-07 1.44637e-07)
(0.000803911 3.1668e-07 7.50044e-08)
(0.000802568 3.62377e-07 8.73103e-08)
(0.000801194 9.83666e-08 3.8091e-08)
(0.000799358 3.61606e-08 4.38102e-08)
(0.000797606 1.27811e-07 4.78567e-08)
(0.000796175 5.25276e-08 4.87923e-08)
(0.000794728 -6.57015e-08 5.01482e-08)
(0.000793219 -8.00705e-08 3.28715e-08)
(0.00079178 -5.59956e-08 6.0127e-08)
(0.000790498 4.77375e-08 4.42271e-08)
(0.000788816 3.27255e-08 8.38126e-08)
(0.000787084 -5.21007e-08 1.80729e-07)
(0.000785823 -4.80845e-08 6.90992e-08)
(0.000784378 3.31484e-08 5.64721e-10)
(0.000782877 5.15387e-09 4.30842e-08)
(0.000781444 7.90086e-08 4.50925e-08)
(0.000779798 1.12953e-07 4.81146e-08)
(0.000778317 4.64626e-07 4.23056e-08)
(0.000777063 3.13293e-07 5.40719e-08)
(0.000775926 1.69511e-07 -2.34519e-08)
(0.000775253 -3.69444e-08 6.44567e-08)
(0.00304529 0.00246299 -0.000354891)
(0.00576152 -0.00851732 0.000290494)
(0.00391492 -0.00113821 0.000290309)
(0.00323736 2.14921e-05 2.85566e-05)
(0.0145282 0.00347333 -0.000170757)
(0.00435804 0.00218837 0.000420709)
(0.00147965 -0.000901101 8.50604e-05)
(0.000397106 -8.96357e-08 -1.69991e-07)
(0.000835046 -5.61795e-05 -1.52681e-06)
(0.000802926 -2.33416e-05 -4.16991e-07)
(0.000823939 -1.40415e-05 1.43725e-07)
(0.000825623 -7.43423e-06 2.06729e-08)
(0.000826999 -4.24683e-06 4.97278e-08)
(0.000826793 -2.69212e-06 5.17834e-08)
(0.000826025 -1.46024e-06 5.19908e-08)
(0.00082497 -7.12925e-07 1.25747e-07)
(0.000823683 -3.84967e-07 1.09363e-07)
(0.000822177 -3.68732e-07 8.42716e-08)
(0.000820701 -1.45266e-07 2.82629e-08)
(0.000819067 4.79184e-08 9.34639e-08)
(0.000817508 -1.67544e-08 4.98978e-08)
(0.000815973 -1.68295e-07 6.66129e-08)
(0.000814489 -1.91232e-07 1.01505e-08)
(0.0008129 -2.28896e-07 5.35664e-08)
(0.000811368 -2.67682e-07 3.31662e-08)
(0.000810215 -3.61635e-07 3.52108e-08)
(0.000808377 -3.1638e-07 7.29422e-08)
(0.000806624 -1.15013e-07 4.91911e-08)
(0.000805488 2.62293e-07 5.22493e-08)
(0.000804051 3.88957e-07 -2.20085e-08)
(0.000802198 3.99703e-07 2.56994e-08)
(0.000800439 2.23527e-07 4.86562e-08)
(0.000799245 -1.56105e-07 -3.29212e-07)
(0.000797728 -2.06791e-07 6.24785e-08)
(0.000796014 -1.73557e-07 1.58222e-07)
(0.000794624 -2.94412e-07 4.57513e-08)
(0.000793249 -1.17475e-07 6.18891e-08)
(0.000791928 -1.32829e-07 4.5335e-08)
(0.000790397 -2.46371e-07 7.96517e-08)
(0.000788749 -2.78419e-07 3.99748e-08)
(0.000787334 -1.00016e-07 5.84031e-08)
(0.000785864 -5.28792e-08 -1.72442e-08)
(0.000784314 5.73177e-08 5.87511e-08)
(0.000782887 8.57171e-08 6.02698e-08)
(0.000781486 2.35967e-08 6.48671e-08)
(0.000780295 4.94286e-08 4.97546e-08)
(0.000778679 1.95159e-07 2.4639e-08)
(0.000776879 4.01455e-07 4.18104e-08)
(0.000775498 6.84027e-07 -5.76233e-08)
(0.00077484 4.67333e-07 9.04242e-08)
(0.00121367 -0.00178533 2.62872e-05)
(-0.000701055 -0.000691271 -0.000123883)
(0.0139792 -0.00118492 -0.000339592)
(-0.00367535 -0.00250453 -0.000278214)
(0.0200579 -0.0213733 0.00424018)
(-0.0192707 0.00379284 -0.00162075)
(0.000405868 -0.000118493 8.38928e-05)
(0.000959817 -8.20864e-05 -1.78338e-06)
(0.000860698 -6.02224e-05 -6.69977e-07)
(0.000849747 -2.57401e-05 2.49745e-08)
(0.000840089 -1.48925e-05 4.72742e-08)
(0.000834878 -8.30192e-06 1.95655e-07)
(0.000831195 -4.76161e-06 5.46814e-08)
(0.000829097 -2.37272e-06 7.23818e-08)
(0.000827783 -1.37509e-06 3.64978e-08)
(0.000825783 -7.40472e-07 4.8784e-08)
(0.000823735 -4.99312e-07 4.97037e-08)
(0.000822351 -1.79936e-07 1.70618e-07)
(0.000821119 -2.04222e-07 8.87825e-08)
(0.000819325 -2.95496e-07 7.0371e-09)
(0.000817441 -1.75611e-07 2.624e-08)
(0.000815912 -1.21731e-07 6.73586e-08)
(0.000814446 -1.04775e-07 5.398e-08)
(0.000812911 -1.27932e-07 4.89307e-08)
(0.000811319 -6.87792e-08 7.0866e-08)
(0.00080969 8.06436e-08 7.31411e-08)
(0.000808468 -2.08115e-07 1.2279e-07)
(0.000806999 -4.00904e-09 4.65796e-08)
(0.000805501 6.45688e-08 6.04236e-08)
(0.00080408 -1.22496e-07 3.23255e-08)
(0.000802358 -1.29376e-07 1.33393e-07)
(0.000800498 -1.24433e-07 -2.3183e-08)
(0.000798821 -1.40432e-07 -3.71824e-08)
(0.000797586 -4.4123e-07 3.92793e-08)
(0.000796067 -1.28214e-07 2.83658e-07)
(0.0007948 9.9828e-08 9.94344e-08)
(0.000793423 -3.50331e-08 2.42344e-08)
(0.000791621 -1.48316e-07 5.40911e-08)
(0.000790319 -5.129e-07 5.59661e-08)
(0.000789002 -2.19852e-07 6.0743e-08)
(0.000787369 -1.41981e-07 5.67859e-08)
(0.000786021 -1.35012e-07 2.22808e-08)
(0.000784553 -1.52767e-07 5.76639e-08)
(0.000782835 1.84309e-07 1.53672e-08)
(0.000781398 4.05914e-08 4.26946e-08)
(0.00078001 7.50307e-08 4.23936e-08)
(0.000778753 -3.30014e-07 3.04949e-08)
(0.000777669 3.68927e-08 3.34789e-08)
(0.000775994 2.3498e-07 -4.38464e-08)
(0.000773818 2.87223e-07 6.72268e-08)
(0.00753407 -0.00258605 -5.5471e-05)
(0.00206842 0.000553838 -0.000285214)
(-0.0119774 -0.00937315 0.000412857)
(-0.0065136 0.0150851 -0.00348425)
(0.00346791 0.00787874 0.0121263)
(-0.0379475 -0.000670581 -0.00508584)
(0.00148562 0.000664931 3.95713e-05)
(0.00162191 -3.58993e-05 4.91801e-07)
(0.00144783 2.3699e-05 3.59803e-07)
(0.00142245 -4.20924e-06 4.12607e-07)
(0.00140356 -2.88772e-06 3.91904e-07)
(0.00139327 -3.44642e-06 3.26862e-07)
(0.00138792 -2.46241e-06 2.86565e-07)
(0.00138295 -1.15044e-06 2.2513e-07)
(0.00137842 -8.26542e-07 2.6984e-07)
(0.0013753 -6.96302e-07 4.51726e-07)
(0.00137258 -4.05342e-07 3.45928e-07)
(0.00136963 -7.57478e-08 3.4143e-07)
(0.0013664 -2.90121e-07 2.45551e-07)
(0.00136392 -2.95658e-07 3.33888e-07)
(0.00136169 -1.9343e-07 3.2644e-07)
(0.00135896 1.19133e-07 3.70637e-07)
(0.00135627 2.82104e-08 3.43323e-07)
(0.00135376 3.88718e-08 2.9557e-07)
(0.00135152 3.38764e-07 3.42618e-07)
(0.00134887 3.8497e-07 1.73056e-07)
(0.00134604 3.74175e-07 2.87703e-07)
(0.00134393 1.50749e-07 3.39102e-07)
(0.00134111 2.87372e-07 3.26138e-07)
(0.00133843 -2.90776e-07 3.42245e-07)
(0.00133582 -8.6844e-07 3.66863e-07)
(0.00133287 -8.46211e-07 1.64336e-07)
(0.00133033 -5.61056e-07 3.46236e-07)
(0.00132859 1.47067e-07 4.27896e-07)
(0.00132675 2.86215e-07 3.31478e-07)
(0.00132353 6.3264e-07 3.25573e-07)
(0.00132049 2.64114e-07 3.27147e-07)
(0.00131778 5.00945e-07 3.08764e-07)
(0.00131604 9.56838e-07 2.88738e-07)
(0.00131423 4.11765e-07 3.84518e-07)
(0.00131135 1.06601e-07 2.91352e-07)
(0.00130868 3.55831e-08 3.59712e-07)
(0.00130684 -4.01238e-07 2.67597e-07)
(0.00130419 -5.81729e-07 2.43952e-07)
(0.00130127 -2.47183e-07 3.15209e-07)
(0.00129875 -2.33619e-07 3.6234e-07)
(0.00129664 2.34354e-08 2.71763e-07)
(0.00129489 -2.53231e-07 3.30945e-07)
(0.0012919 -6.23079e-07 3.54204e-07)
(0.00128914 -5.2414e-07 2.46632e-07)
(0.0172923 -0.00308045 0.000603794)
(0.000587275 0.0211298 -0.00293041)
(-0.0412773 0.0120022 0.0134545)
(0.0142025 0.00815559 0.00360567)
(0.00243486 -0.00730721 -0.00581365)
(0.0179296 0.00916657 0.000426536)
(0.00124353 0.000156099 4.91948e-05)
(0.00137817 5.7538e-05 -1.01718e-06)
(0.001495 3.76472e-05 4.28724e-07)
(0.00138202 3.74594e-06 4.19705e-07)
(0.00139982 2.81507e-06 3.49942e-07)
(0.00139072 4.77075e-07 3.47404e-07)
(0.00138696 -4.43953e-08 3.47146e-07)
(0.00138265 -6.94259e-07 3.44625e-07)
(0.00137894 -4.34994e-07 3.4484e-07)
(0.00137564 -2.97607e-07 4.78237e-07)
(0.00137258 -1.70378e-09 3.44764e-07)
(0.00136961 1.01205e-07 2.88611e-07)
(0.00136704 5.21683e-07 4.74809e-07)
(0.00136446 4.14793e-07 3.15719e-07)
(0.00136167 4.58917e-07 -8.74186e-08)
(0.00135888 2.89022e-07 3.76518e-07)
(0.00135615 6.25429e-07 5.72645e-07)
(0.00135409 5.73708e-07 3.07161e-07)
(0.00135146 3.72063e-07 3.43073e-07)
(0.0013484 -6.75654e-08 3.2347e-07)
(0.00134605 7.4373e-08 3.10369e-07)
(0.00134376 -2.62452e-07 3.35063e-07)
(0.00134085 -9.1761e-07 2.96531e-07)
(0.00133763 -8.1136e-07 2.50065e-07)
(0.00133543 -5.70504e-07 5.6361e-08)
(0.00133339 -2.73222e-07 2.78594e-07)
(0.00133149 7.19149e-07 4.79244e-07)
(0.00132926 9.84855e-07 3.8364e-07)
(0.00132632 4.41441e-07 3.35924e-07)
(0.00132359 2.41536e-07 3.70108e-07)
(0.0013211 4.06493e-07 3.15088e-07)
(0.00131907 5.71861e-07 1.32272e-07)
(0.00131592 1.00951e-06 4.46466e-07)
(0.00131287 5.34649e-07 3.34723e-07)
(0.00131076 1.4168e-07 3.36308e-07)
(0.00130832 -1.27208e-07 3.67039e-07)
(0.00130572 -3.22055e-07 2.20755e-07)
(0.00130392 -7.24262e-07 6.43764e-07)
(0.00130185 -1.6902e-07 3.63515e-07)
(0.00129936 -1.08761e-07 3.4911e-07)
(0.0012969 5.36074e-07 3.20765e-07)
(0.00129419 7.50071e-08 2.84447e-07)
(0.00129183 -2.17683e-07 7.99872e-08)
(0.00129007 -3.1339e-07 4.08407e-07)
(0.00789237 -0.0039972 -0.00207441)
(-0.0241095 -0.0027714 0.0085221)
(0.0121594 -0.00712195 0.00635077)
(0.000180426 -0.0179812 0.00218006)
(-0.00343684 0.00422348 0.00191486)
(0.00029733 0.0110662 0.000981755)
(0.00169443 0.00116952 0.000115237)
(0.0013779 -5.01481e-05 5.59443e-07)
(0.001508 7.45038e-06 -2.74392e-07)
(0.00137893 5.91326e-06 3.3945e-07)
(0.0013995 3.84969e-06 3.50449e-07)
(0.0013897 2.36259e-06 3.34209e-07)
(0.00138647 1.40258e-06 3.46607e-07)
(0.00138247 8.20109e-07 3.45455e-07)
(0.00137893 5.35247e-07 3.4456e-07)
(0.00137584 3.58433e-07 3.43068e-07)
(0.00137308 2.03149e-07 3.44188e-07)
(0.00137029 8.22535e-08 2.73758e-07)
(0.00136679 -3.32926e-08 3.8007e-07)
(0.00136383 7.22042e-08 3.2571e-07)
(0.00136153 4.47471e-08 2.87455e-07)
(0.00135916 1.2195e-07 3.37214e-07)
(0.00135662 2.73399e-07 3.13253e-07)
(0.00135344 3.6906e-07 -1.87141e-07)
(0.00135072 5.06237e-08 3.48032e-07)
(0.0013485 1.55109e-07 3.22287e-07)
(0.0013458 1.33427e-07 3.40739e-07)
(0.00134269 3.02809e-08 3.27748e-07)
(0.00134043 -1.19233e-07 2.22308e-07)
(0.00133887 5.52138e-07 3.64723e-07)
(0.0013365 8.86687e-07 4.42554e-07)
(0.00133448 9.17455e-07 4.78137e-07)
(0.0013319 7.3502e-07 2.23395e-07)
(0.00132823 2.60397e-07 1.86019e-07)
(0.00132582 -2.4703e-08 3.75562e-07)
(0.00132348 -2.27094e-07 3.24246e-07)
(0.00132091 -2.98293e-08 3.13631e-07)
(0.00131853 -9.44461e-08 3.4957e-07)
(0.00131599 -3.27585e-07 3.16603e-07)
(0.00131314 -4.24793e-08 4.15401e-07)
(0.00131052 -5.6346e-08 3.36401e-07)
(0.0013081 -2.86454e-08 2.45349e-07)
(0.0013061 5.51233e-07 3.31016e-07)
(0.00130439 6.24396e-07 3.97935e-07)
(0.00130205 5.37304e-07 8.77391e-08)
(0.00129963 5.12806e-07 4.04284e-07)
(0.00129687 4.90883e-07 4.35073e-07)
(0.00129395 6.41373e-07 3.53584e-07)
(0.00129143 3.79372e-07 2.30975e-07)
(0.0012898 2.24466e-07 4.5284e-07)
(-0.00196621 0.00566946 0.000652245)
(-0.0111028 -0.017722 0.0725032)
(0.00804321 -0.00259715 -0.00073147)
(0.0301236 0.00582331 -0.00161777)
(-0.0209071 -0.0196099 0.00836514)
(-0.00327981 0.0135281 0.000130234)
(0.00279098 0.003891 5.14512e-05)
(0.0014781 -0.000129076 1.16473e-05)
(0.00147037 3.91551e-06 2.86989e-07)
(0.00137761 5.0971e-06 2.80827e-07)
(0.00139547 4.9162e-06 3.503e-07)
(0.00138771 3.8546e-06 3.46969e-07)
(0.00138507 2.43574e-06 3.45342e-07)
(0.00138159 1.77372e-06 3.45027e-07)
(0.00137837 1.40666e-06 3.44543e-07)
(0.00137524 9.4666e-07 3.44077e-07)
(0.00137224 3.38955e-07 3.43382e-07)
(0.00136932 -8.28946e-08 3.32121e-07)
(0.00136704 -5.11418e-07 2.87689e-07)
(0.00136456 -4.04688e-07 3.11358e-07)
(0.00136174 -2.46226e-07 2.34724e-07)
(0.00135916 -2.28439e-07 3.40042e-07)
(0.00135646 -3.69878e-07 3.39221e-07)
(0.00135381 -2.3886e-07 4.20462e-07)
(0.00135119 4.29938e-08 2.80659e-07)
(0.0013485 2.69585e-07 2.77061e-07)
(0.00134589 3.88856e-07 4.00795e-07)
(0.00134345 8.0872e-07 3.91227e-07)
(0.0013415 1.43527e-06 2.66848e-07)
(0.00133888 1.23108e-06 3.2216e-07)
(0.00133588 8.23001e-07 3.60768e-07)
(0.00133319 9.8531e-07 2.53843e-07)
(0.00133067 6.79455e-08 3.25347e-07)
(0.00132831 -1.37636e-07 3.35685e-07)
(0.00132571 8.16936e-09 2.10538e-07)
(0.00132358 -1.75306e-07 3.36001e-07)
(0.00132127 -1.42025e-07 3.09823e-07)
(0.00131869 -4.31315e-08 3.1932e-07)
(0.00131598 -4.64901e-07 1.98428e-07)
(0.00131321 -5.28391e-07 2.63865e-07)
(0.00131078 -1.53099e-08 3.02575e-07)
(0.00130908 3.92669e-07 3.34189e-07)
(0.00130653 6.35602e-07 3.5926e-07)
(0.0013039 6.90649e-07 1.4265e-07)
(0.0013017 1.54546e-07 3.42952e-07)
(0.00129929 8.90526e-08 3.25092e-07)
(0.00129705 3.68578e-08 3.7786e-07)
(0.00129405 4.4018e-07 3.1686e-07)
(0.0012913 2.85645e-07 3.29693e-07)
(0.00128932 4.32683e-07 5.33794e-07)
(-0.0114195 -0.0471524 -0.000718811)
(0.00229434 -0.00591148 -3.90979e-05)
(-0.0151924 0.0204768 0.0306374)
(-0.00719061 -0.0032926 0.00295829)
(0.017924 0.00146546 -0.000781485)
(-0.00722226 -0.00890474 0.000135045)
(0.000351958 0.00168201 1.3725e-05)
(0.00121695 -0.000155399 6.47902e-05)
(0.00153228 1.47159e-05 6.5546e-07)
(0.00138047 9.3549e-06 4.10995e-07)
(0.00139806 8.15671e-06 3.68038e-07)
(0.00138667 5.54051e-06 3.96625e-07)
(0.00138391 4.05084e-06 3.37004e-07)
(0.0013812 2.36222e-06 3.4535e-07)
(0.0013779 1.10712e-06 3.74047e-07)
(0.00137451 5.48132e-07 3.48801e-07)
(0.0013718 3.97037e-07 3.42948e-07)
(0.00136923 2.48124e-07 3.41379e-07)
(0.00136639 4.22376e-07 5.60373e-07)
(0.00136417 3.24271e-07 3.18832e-07)
(0.00136176 -4.46302e-08 3.73221e-07)
(0.00135901 1.32894e-07 6.20014e-07)
(0.00135661 7.44699e-08 3.12264e-07)
(0.00135395 7.99829e-08 3.55576e-07)
(0.00135135 2.28849e-08 2.70888e-07)
(0.00134893 -1.34551e-07 3.73983e-07)
(0.00134646 2.36298e-07 3.90358e-07)
(0.00134399 4.58658e-07 3.44765e-07)
(0.00134094 6.92426e-07 5.05658e-07)
(0.00133809 6.18308e-07 3.07018e-07)
(0.00133618 2.93185e-07 3.61207e-07)
(0.00133353 -2.59497e-07 2.98372e-07)
(0.00133049 2.06054e-07 3.63191e-07)
(0.00132816 1.18774e-07 3.30603e-07)
(0.00132577 2.46113e-07 3.29276e-07)
(0.0013233 1.28088e-07 3.27839e-07)
(0.00132107 -1.47589e-07 2.00653e-07)
(0.00131813 -4.50678e-07 3.28296e-07)
(0.00131538 -3.77267e-07 3.29476e-07)
(0.00131371 -4.16641e-07 1.95545e-07)
(0.00131167 6.8654e-09 3.30561e-07)
(0.00130891 2.89937e-07 5.02106e-07)
(0.00130646 -1.09592e-07 1.43964e-07)
(0.00130378 5.33677e-08 7.46169e-08)
(0.00130129 -2.9847e-07 3.2684e-07)
(0.00129948 -4.00267e-07 3.23544e-07)
(0.00129731 -9.04408e-07 1.13723e-07)
(0.00129426 -1.32139e-06 2.94923e-07)
(0.00129141 -5.14133e-07 3.37332e-07)
(0.0012889 8.42016e-08 3.2907e-07)
(-0.0207063 0.0749322 -0.00834849)
(0.0230563 -0.0316605 -0.00275065)
(-0.00322311 -0.00115116 0.00649491)
(0.01573 5.80424e-05 0.00190157)
(-0.00166681 0.0134186 0.00431289)
(-0.00765854 0.00402604 0.000621627)
(0.00193946 0.00311688 -4.89322e-06)
(0.00128755 4.23745e-06 6.31674e-05)
(0.00151524 3.91114e-05 5.95939e-07)
(0.00136897 2.53075e-05 3.69165e-07)
(0.00139076 1.37825e-05 3.05678e-07)
(0.00138261 7.908e-06 3.22538e-07)
(0.00138112 4.86533e-06 3.75514e-07)
(0.00137792 2.60908e-06 3.44119e-07)
(0.00137611 1.14727e-06 3.43437e-07)
(0.00137436 5.0734e-07 3.56198e-07)
(0.00137187 3.53184e-07 3.42792e-07)
(0.00136935 2.89956e-07 3.15198e-07)
(0.00136713 2.3177e-07 3.16744e-07)
(0.00136398 4.53748e-07 6.71573e-07)
(0.00136149 4.48761e-07 2.34563e-07)
(0.00135931 3.39696e-07 3.07239e-07)
(0.00135639 2.67046e-07 3.11654e-07)