/*--------------------------------*- C++ -*----------------------------------*\
| =========                 |                                                 |
| \\      /  F ield         | OpenFOAM: The Open Source CFD Toolbox           |
|  \\    /   O peration     | Version:  5.0                                   |
|   \\  /    A nd           | Web:      www.OpenFOAM.org                      |
|    \\/     M anipulation  |                                                 |
\*---------------------------------------------------------------------------*/
FoamFile
{
    version     2.0;
    format      ascii;
    class       volVectorField;
    location    "3.6";
    object      U_0;
}
// * * * * * * * * * * * * * * * * * * * * * * * * * * * * * * * * * * * * * //

dimensions      [0 1 -1 0 0 0 0];

internalField   nonuniform List<vector> 
8570
(
(0.0135874 0.000677061 -0.000370269)
(0.00376585 0.00190643 0.000238107)
(-0.0170535 -0.0110584 0.00115855)
(-0.0131763 0.00264573 -0.000331644)
(0.0320026 0.00869524 0.000667478)
(-0.0150468 0.0149876 -0.000314242)
(0.000367881 0.000201854 3.26269e-05)
(0.000839219 0.000109145 -3.02901e-07)
(0.000800803 8.30129e-05 -4.16732e-07)
(0.000822006 3.85404e-05 2.15162e-07)
(0.000825556 2.28979e-05 1.11982e-07)
(0.000826757 1.2882e-05 7.0362e-08)
(0.000827061 7.62481e-06 2.79098e-08)
(0.000826064 4.76382e-06 7.74885e-08)
(0.000824593 2.82333e-06 6.43881e-08)
(0.000823398 1.66551e-06 2.35658e-07)
(0.000822063 9.61027e-07 5.40386e-08)
(0.000820688 5.34725e-07 3.34984e-08)
(0.000819037 6.87673e-09 3.12782e-08)
(0.00081717 -8.80713e-08 2.05723e-07)
(0.000816167 -4.19263e-07 6.68412e-08)
(0.000814974 -1.14912e-07 7.59422e-08)
(0.000813172 -2.26803e-07 2.82306e-08)
(0.000811662 -8.62744e-08 4.49617e-08)
(0.000810187 4.40273e-08 -1.0206e-08)
(0.0008087 2.07059e-07 7.65004e-08)
(0.000807425 3.08466e-07 5.13238e-08)
(0.000806353 7.4813e-08 4.86268e-08)
(0.000804285 7.18886e-08 2.71896e-08)
(0.000802352 -2.56497e-07 1.70574e-07)
(0.000801203 -7.08134e-07 -5.81243e-08)
(0.000799586 -5.88473e-07 1.65186e-08)
(0.00079827 -4.86236e-07 7.58069e-08)
(0.000797342 -2.14347e-07 5.61252e-08)
(0.000795965 7.47956e-08 9.90655e-08)
(0.000794243 2.14266e-07 5.97194e-08)
(0.000792483 -1.85301e-07 1.39166e-07)
(0.00079092 8.59448e-08 5.05341e-09)
(0.000789524 3.45453e-07 -4.92375e-08)
(0.000788417 4.10056e-07 5.91959e-08)
(0.000787163 1.58588e-07 3.05503e-08)
(0.000785611 1.23323e-07 7.25088e-08)
(0.000784412 -3.313e-07 1.01528e-07)
(0.000782874 -2.14119e-07 2.31213e-07)
(0.00078133 -2.15099e-07 3.54767e-08)
(0.00077992 -2.38072e-07 5.99995e-08)
(0.000778511 -2.92598e-07 7.62461e-08)
(0.000777266 -5.06069e-07 1.55342e-07)
(0.000775553 -3.13986e-07 -2.2194e-08)
(0.000773763 -2.22822e-07 6.55343e-08)
(0.0103251 0.000773432 -0.000517225)
(-0.00262935 -0.0165227 0.00162869)
(-0.00181321 -0.00417909 -0.00290535)
(0.0349634 -0.00593199 -0.000418219)
(-0.00715925 -0.00288122 -0.00101815)
(0.00475365 -0.000306855 0.000379759)
(0.000304296 -3.78328e-05 6.17357e-05)
(0.000387785 2.90713e-05 1.60496e-07)
(0.000825222 3.72014e-05 -1.01277e-06)
(0.000788458 1.52936e-05 -3.52171e-07)
(0.000814621 1.14436e-05 1.81323e-07)
(0.0008188 6.91855e-06 4.46512e-08)
(0.000822311 4.31518e-06 6.16465e-08)
(0.000823225 2.44344e-06 5.09467e-08)
(0.000823162 1.52793e-06 5.17935e-08)
(0.000822518 9.36952e-07 1.29511e-08)
(0.000821507 5.89756e-07 4.90574e-08)
(0.000820062 3.83778e-07 7.17789e-08)
(0.000818862 3.89927e-07 8.63473e-08)
(0.000817641 2.58722e-07 2.95743e-08)
(0.000816048 4.75858e-07 8.69969e-08)
(0.000814482 1.70035e-07 6.404e-08)
(0.000813085 3.89545e-07 5.79599e-08)
(0.000811907 2.68056e-07 5.9541e-08)
(0.000810465 1.34218e-07 5.7481e-08)
(0.000808937 2.89318e-08 5.78823e-08)
(0.000807175 2.97367e-08 4.20125e-08)
(0.000805529 -2.22062e-07 4.79974e-08)
(0.000804056 -8.41631e-07 7.56377e-08)
(0.000802257 -5.43057e-07 6.51505e-08)
(0.000801013 -4.50859e-07 1.32019e-07)
(0.000799984 -2.85967e-07 5.13104e-08)
(0.000798715 3.03898e-07 1.90197e-07)
(0.000797573 4.28003e-07 4.10733e-08)
(0.000796013 -6.26721e-08 4.45417e-08)
(0.000794087 -2.17504e-07 2.25919e-08)
(0.00079261 -6.16504e-08 4.88484e-08)
(0.000791354 1.11471e-07 5.993e-08)
(0.000789806 3.15116e-07 2.11995e-08)
(0.000788259 4.79493e-07 2.65142e-07)
(0.000786768 8.42353e-08 4.84619e-08)
(0.000785181 -6.50595e-08 7.81008e-08)
(0.00078388 -2.75208e-07 6.76907e-08)
(0.000782822 -4.00203e-07 -2.19658e-08)
(0.000781402 -1.33658e-07 5.59508e-08)
(0.000779937 -1.41788e-07 5.71918e-08)
(0.000778564 3.98119e-08 6.65057e-08)
(0.000777147 -1.47843e-07 5.05016e-08)
(0.000775534 -3.63329e-07 8.54599e-08)
(0.000774505 -2.39226e-07 2.93209e-08)
(0.00549096 -0.00451933 -0.000147827)
(-0.00576919 0.00529341 -0.00255584)
(0.0223363 -0.00702007 -0.000190578)
(-0.00650076 -0.00316644 0.000634953)
(0.00117992 -0.0073892 -0.000705984)
(-0.00177525 -0.00664045 0.000282289)
(0.000719683 0.000415897 0.000143076)
(0.000399682 -1.94318e-05 -1.4196e-06)
(0.000844409 -1.25482e-05 -1.8519e-06)
(0.000789891 -5.27375e-06 -5.87969e-07)
(0.000815091 -2.14553e-06 1.68057e-07)
(0.000817846 -8.95651e-07 4.60122e-08)
(0.000821468 -3.65537e-07 5.64415e-08)
(0.000822581 -1.87207e-07 5.18491e-08)
(0.000822712 -1.08926e-07 5.21226e-08)
(0.000822228 -8.2309e-08 5.2262e-08)
(0.000821374 -9.89869e-08 5.56228e-08)
(0.00082044 -1.4468e-07 8.13877e-09)
(0.000818882 -5.07722e-08 1.0894e-07)
(0.000817277 -5.77738e-08 3.97556e-08)
(0.000816054 -4.67721e-08 2.8693e-08)
(0.000814864 6.52287e-08 4.67905e-08)
(0.000813292 2.01486e-07 2.69022e-08)
(0.000811341 1.96065e-07 7.63707e-08)
(0.000809886 7.82205e-08 4.79684e-08)
(0.000808569 -2.29144e-08 3.22856e-08)
(0.000807112 -1.89199e-07 4.57941e-08)
(0.000805267 -7.85602e-08 6.00148e-08)
(0.000803889 -3.73753e-08 -4.45859e-08)
(0.000802846 4.22393e-07 8.0243e-08)
(0.000801528 7.24483e-07 9.18057e-08)
(0.00080053 6.61943e-07 6.59799e-08)
(0.00079916 4.07474e-07 2.91811e-07)
(0.000796881 2.67428e-07 1.35002e-07)
(0.000795156 -6.43523e-08 9.30587e-08)
(0.000794244 -1.04211e-07 6.60741e-08)
(0.000792894 1.46943e-08 1.26931e-07)
(0.000791388 -4.41053e-08 4.51381e-08)
(0.000789981 -2.48827e-09 4.28472e-08)
(0.000788124 -7.80346e-08 4.28208e-08)
(0.00078648 -6.26203e-08 2.73223e-08)
(0.000785162 -2.00444e-08 5.89958e-08)
(0.000783996 2.67997e-07 2.54854e-07)
(0.000783054 2.77361e-07 9.86962e-08)
(0.000781656 2.28301e-07 7.29608e-08)
(0.000780138 2.23132e-07 5.53708e-08)
(0.000778505 3.23714e-07 7.07834e-08)
(0.000776763 1.54564e-07 7.73112e-08)
(0.000775445 8.37468e-08 6.09928e-08)
(0.000774513 7.55461e-08 8.08435e-08)
(-0.00448956 -0.00246807 0.000591283)
(0.000243471 -0.0117019 -0.00150941)
(0.0089425 -0.00537863 0.00055037)
(-0.00456159 -0.00470414 5.61847e-05)
(1.33881e-05 0.0137615 -0.000454291)
(-0.00151725 0.000928689 0.000114328)
(0.000314264 0.00068158 -2.01642e-06)
(0.000296993 -1.45606e-05 3.90494e-06)
(0.000848865 -3.51828e-05 -1.61478e-06)
(0.000801685 -2.08596e-05 -1.04605e-07)
(0.000820179 -1.21018e-05 1.68898e-07)
(0.000821075 -7.16474e-06 3.57344e-08)
(0.000823226 -4.30414e-06 5.92597e-08)
(0.000823564 -2.60696e-06 5.23586e-08)
(0.000823305 -1.60338e-06 5.25346e-08)
(0.000822538 -9.8862e-07 5.21406e-08)
(0.000821435 -6.36684e-07 5.33699e-08)
(0.000820126 -4.80674e-07 9.24192e-08)
(0.000818973 -5.98569e-07 3.46793e-08)
(0.000817648 -6.03643e-07 3.20274e-08)
(0.000816203 -3.0639e-07 8.83708e-08)
(0.000814793 -2.54371e-07 5.0219e-08)
(0.000813247 -3.74882e-07 2.1754e-08)
(0.000811752 -1.83126e-07 6.62524e-08)
(0.00081019 5.44785e-08 2.44519e-08)
(0.000808603 1.91638e-07 3.01606e-08)
(0.000807105 2.59977e-07 6.33149e-08)
(0.000805719 3.34792e-07 8.21164e-08)
(0.00080468 8.5703e-07 9.12581e-08)
(0.000803206 7.19903e-07 1.84213e-08)
(0.000801307 7.55253e-07 1.69197e-08)
(0.000799582 7.22834e-07 -6.21219e-08)
(0.000798218 2.05184e-07 4.82223e-08)
(0.000796981 -4.58486e-08 5.14658e-08)
(0.000795548 2.56664e-07 4.45166e-08)
(0.000794186 2.26775e-07 4.75959e-08)
(0.000792686 7.93074e-08 5.58722e-08)
(0.000791333 -1.57792e-08 5.52877e-08)
(0.000789764 -3.14573e-07 1.07777e-08)
(0.000788184 -2.6423e-07 2.59639e-08)
(0.00078684 8.04571e-08 -5.51489e-08)
(0.000785593 2.36299e-07 5.95357e-08)
(0.000784249 3.31213e-07 8.83133e-08)
(0.000782769 3.41681e-07 -3.55264e-08)
(0.000781331 1.43048e-08 -6.0668e-08)
(0.000780052 1.41205e-08 4.09612e-08)
(0.000778475 -4.81186e-08 8.2441e-08)
(0.000776845 8.45219e-08 3.3538e-08)
(0.000775431 2.82717e-07 4.4592e-08)
(0.000774305 2.29048e-07 5.07678e-08)
(0.00723172 -0.0111946 0.000540612)
(0.0013607 0.0275596 -0.000267168)
(-0.0144731 -0.0012015 -0.00826032)
(-0.0122277 -0.010966 -0.00096962)
(-0.00133617 -0.00552534 -0.00218155)
(0.00545853 -0.0040604 0.000184082)
(0.000993091 0.000476965 1.09317e-05)
(0.000507426 -7.6066e-05 4.20084e-05)
(0.000906858 -3.69789e-05 -1.25567e-06)
(0.00081912 -2.51588e-05 -6.40817e-07)
(0.000832337 -1.5449e-05 1.68963e-07)
(0.000827669 -9.7884e-06 -1.15562e-08)
(0.00082721 -6.11997e-06 1.92909e-07)
(0.000825984 -3.83913e-06 4.94332e-08)
(0.000824751 -2.36132e-06 6.16912e-08)
(0.000823445 -1.43135e-06 5.32993e-08)
(0.000822014 -8.45058e-07 4.83931e-08)
(0.000820491 -4.42331e-07 4.5959e-08)
(0.000818731 -1.27705e-07 5.47205e-08)
(0.000817646 1.40331e-07 1.16808e-08)
(0.000816494 -9.80829e-08 6.69725e-08)
(0.000814781 6.9435e-08 2.82883e-08)
(0.000813384 -4.78007e-09 7.533e-08)
(0.000811879 2.01857e-08 9.41237e-08)
(0.000810355 -8.61775e-10 6.5543e-08)
(0.000808824 1.65329e-08 6.41887e-08)
(0.000807287 1.26112e-07 6.74166e-08)
(0.000806008 1.96878e-07 3.16924e-08)
(0.000804363 2.03984e-07 1.89187e-09)
(0.000802711 4.51624e-08 1.97829e-08)
(0.000801524 1.09506e-08 5.82455e-08)
(0.000799837 -2.04597e-07 3.67077e-08)
(0.000798196 1.52104e-07 4.64597e-07)
(0.000796944 7.86475e-08 5.24369e-08)
(0.000795495 1.05464e-07 6.97636e-08)
(0.000794021 4.68893e-09 4.8803e-08)
(0.00079259 -5.73937e-08 4.66736e-08)
(0.000790897 -1.75304e-08 5.90626e-08)
(0.000789672 -8.7382e-08 1.04298e-07)
(0.00078862 4.56396e-08 8.45796e-08)
(0.000787106 1.30586e-07 4.95471e-08)
(0.000785473 2.33519e-07 1.22503e-07)
(0.000784124 2.69417e-07 6.09915e-08)
(0.000782654 1.81829e-07 8.03091e-08)
(0.000781245 5.772e-09 3.51049e-08)
(0.000780059 -1.3671e-07 4.79439e-08)
(0.000778592 -4.05374e-07 -3.72823e-08)
(0.000777176 -3.24365e-07 -2.87013e-08)
(0.000775619 -1.92061e-07 1.56737e-07)
(0.000773876 1.18123e-07 9.35162e-08)
(-0.00739743 -0.00984181 -0.000754286)
(0.018008 0.0357885 -0.00810889)
(-0.00862006 -0.00324435 -0.000427981)
(-0.000447023 0.00701401 0.000330773)
(-0.0171619 -0.00127887 0.00116493)
(-0.00177828 0.00329495 9.32709e-05)
(0.00115235 0.000810048 -1.19579e-05)
(0.000509649 9.1455e-06 4.49306e-05)
(0.000915398 -2.3437e-05 -1.33829e-06)
(0.000828603 -1.62943e-05 -5.3937e-07)
(0.000839495 -1.22666e-05 1.74944e-07)
(0.000832797 -8.32543e-06 1.67082e-07)
(0.000830701 -5.50597e-06 9.45334e-08)
(0.000828285 -3.57226e-06 4.87676e-08)
(0.000826329 -2.24529e-06 4.88597e-08)
(0.000824442 -1.3682e-06 4.9522e-08)
(0.000822676 -8.00542e-07 5.0188e-08)
(0.000821025 -3.75148e-07 2.73277e-08)
(0.000819702 -9.31805e-08 2.52973e-08)
(0.000817685 4.52569e-07 1.39105e-07)
(0.000816113 4.18085e-07 -8.5822e-08)
(0.000814909 3.01181e-07 3.24836e-08)
(0.000813185 2.33933e-07 6.59622e-08)
(0.000811756 1.51828e-07 2.94287e-08)
(0.000810185 1.38371e-07 -2.3599e-08)
(0.000808761 6.93157e-08 3.99219e-08)
(0.00080733 -2.7506e-08 3.81539e-08)
(0.000805814 -1.45086e-07 1.85306e-08)
(0.000804488 -1.66959e-07 1.00252e-07)
(0.000802963 -2.80848e-07 7.56905e-08)
(0.000800994 -4.12671e-07 -1.90421e-08)
(0.000799757 -2.6528e-07 1.85799e-07)
(0.000798571 -2.10636e-07 1.91649e-08)
(0.00079692 -1.35763e-07 3.69055e-08)
(0.000795455 -1.73136e-07 4.75149e-08)
(0.000793982 -7.82695e-09 4.89562e-08)
(0.000792658 2.36219e-08 6.10268e-08)
(0.000791296 2.6819e-07 4.9629e-08)
(0.000789844 3.45389e-07 9.86088e-08)
(0.000788457 1.69321e-07 7.21174e-08)
(0.000787075 1.52945e-07 2.64105e-08)
(0.000785765 1.42544e-07 1.58264e-07)
(0.000784184 2.26464e-07 3.32597e-08)
(0.00078244 6.61375e-08 -2.68005e-08)
(0.000780934 1.03779e-07 4.02496e-08)
(0.000779542 -1.16842e-07 4.76337e-08)
(0.000778244 -4.45556e-07 -3.34537e-07)
(0.000777115 -5.13767e-07 5.99718e-08)
(0.000775985 -4.74258e-07 9.77973e-08)
(0.000774398 -1.77469e-07 1.82136e-07)
(0.00857539 -0.0102896 4.21395e-06)
(0.00730183 0.000197675 -0.000858394)
(-0.00252277 0.00214711 0.0010242)
(0.0226404 0.00282165 -0.00023981)
(-0.00302906 0.000399495 2.30609e-05)
(-0.000670376 0.000323184 6.52337e-05)
(0.000165264 0.000590298 7.06266e-05)
(0.000469384 2.9929e-05 3.11114e-05)
(0.000889229 -2.25737e-05 -1.78252e-06)
(0.000833223 -1.41537e-05 -3.26552e-07)
(0.000842308 -9.63276e-06 1.73289e-07)
(0.000836133 -6.1174e-06 4.12355e-08)
(0.000833163 -3.9078e-06 5.82457e-08)
(0.000830068 -2.4463e-06 5.1869e-08)
(0.000827512 -1.52257e-06 5.13157e-08)
(0.000825255 -9.22207e-07 4.9946e-08)
(0.000823257 -4.98553e-07 4.96081e-08)
(0.000821376 -2.32157e-07 8.26235e-08)
(0.000819765 -9.71182e-08 1.19694e-07)
(0.000818282 -2.35471e-07 6.43467e-08)
(0.000816301 2.25688e-07 -2.10074e-08)
(0.000814548 6.61846e-08 4.81258e-08)
(0.000813195 1.85633e-07 4.23039e-08)
(0.000811758 7.51752e-08 4.84769e-08)
(0.00081025 1.38868e-07 3.94056e-09)
(0.000808616 1.70875e-07 1.94359e-07)
(0.00080702 -3.54692e-08 5.52636e-08)
(0.000805835 -8.49057e-08 7.14839e-08)
(0.000804196 -3.81641e-07 6.18905e-08)
(0.000802407 -6.3227e-07 4.98495e-08)
(0.000801547 -2.58383e-07 1.51106e-07)
(0.000800093 1.48863e-08 6.36326e-08)
(0.00079836 -5.66567e-08 4.07174e-08)
(0.000796993 -8.03692e-08 6.30744e-08)
(0.000795657 -8.2704e-08 1.20183e-07)
(0.000794268 1.96263e-08 5.14067e-08)
(0.000792935 3.02317e-08 3.60961e-08)
(0.000791298 -8.47638e-08 3.39353e-08)
(0.000789547 1.00171e-07 5.25227e-08)
(0.000788378 2.51764e-07 3.20705e-08)
(0.000787071 1.33449e-07 7.41998e-08)
(0.000785565 1.22823e-07 -4.55873e-10)
(0.000784028 8.39335e-11 6.27724e-08)
(0.000782501 -1.08129e-07 5.7252e-08)
(0.000781017 -2.87656e-08 2.17063e-08)
(0.000779375 2.99181e-08 4.87226e-08)
(0.0007781 -4.91782e-09 -1.33713e-07)
(0.000777145 -3.00754e-07 6.54403e-08)
(0.000776048 -2.26803e-07 2.3923e-08)
(0.000774689 -3.20672e-07 7.73726e-08)
(0.0038889 -0.00565933 2.97081e-05)
(-0.00075842 -0.00179054 0.000152984)
(0.00350376 0.00339878 -0.000482905)
(0.00151253 -0.0107375 -0.000134314)
(-0.0119341 0.00110711 0.000353829)
(-0.00246191 -0.00804901 0.000250376)
(0.000575234 1.34825e-05 3.45063e-06)
(0.000516737 -2.69478e-05 1.78358e-06)
(0.000927163 -2.22235e-05 -1.36355e-06)
(0.000844528 -9.8416e-06 -5.7187e-07)
(0.000849505 -4.83201e-06 1.55918e-07)
(0.000839936 -2.23528e-06 2.39217e-08)
(0.000835279 -1.07456e-06 5.38369e-08)
(0.000831261 -5.35267e-07 4.84512e-08)
(0.00082823 -2.52235e-07 5.00624e-08)
(0.000825719 -1.12934e-07 5.07252e-08)
(0.000823537 -8.63457e-08 1.03911e-07)
(0.000821525 -2.84382e-08 5.97194e-08)
(0.000819697 6.72275e-08 1.32563e-07)
(0.000818087 -2.69016e-08 3.81771e-08)
(0.00081649 -1.38546e-07 4.7145e-08)
(0.000814858 1.16381e-08 6.59e-08)
(0.000813196 -1.14001e-07 4.00219e-08)
(0.000811697 -8.71185e-08 4.86957e-08)
(0.000810304 -2.95695e-07 6.31383e-08)
(0.000808543 -2.99858e-07 7.60715e-09)
(0.00080701 -1.0975e-07 3.42323e-08)
(0.000805384 1.0737e-08 4.86641e-08)
(0.000803809 -1.75961e-07 5.06203e-08)
(0.000803122 3.22495e-07 5.47282e-08)
(0.000801806 3.77259e-07 8.54372e-08)
(0.000800011 1.17065e-07 4.39115e-08)
(0.000798453 2.81894e-07 4.76201e-08)
(0.000796889 1.16954e-07 5.07632e-08)
(0.000795581 5.71405e-08 4.83606e-08)
(0.000794124 -1.91273e-07 7.98506e-08)
(0.000792528 -4.70551e-07 6.63885e-08)
(0.000791384 -4.45735e-07 7.40504e-08)
(0.000790263 -1.80817e-08 4.3209e-08)
(0.000788497 1.28669e-07 2.12296e-08)
(0.000786912 -4.50656e-08 5.13359e-08)
(0.000785598 3.41471e-08 4.19299e-08)
(0.000783895 -1.11137e-07 3.41504e-08)
(0.000782405 -1.11726e-08 4.32555e-08)
(0.000781107 3.84463e-08 4.41756e-08)
(0.000779572 1.54128e-07 4.64694e-08)
(0.000777832 4.71881e-07 5.7922e-08)
(0.00077684 6.22559e-07 7.18026e-08)
(0.000775969 2.39614e-07 -1.05709e-08)
(0.00077508 -3.64641e-08 3.98039e-08)
(0.00298466 0.00275841 -0.00035815)
(0.00542071 -0.00864785 0.000343781)
(0.00410253 -0.00101993 0.000227272)
(0.00336786 -9.11542e-05 4.81255e-05)
(0.0153817 0.00333306 -0.000144706)
(0.00507411 0.000947904 0.000416986)
(0.00169834 -0.00128923 7.46476e-05)
(0.000549662 -3.13474e-05 5.73157e-07)
(0.000934863 -1.10576e-05 -1.56833e-06)
(0.00085475 6.04455e-06 -3.79934e-07)
(0.000851768 4.32941e-06 1.50261e-07)
(0.000840796 3.91941e-06 3.56528e-08)
(0.000835265 2.76848e-06 5.51119e-08)
(0.000831081 1.70882e-06 5.23672e-08)
(0.00082803 1.16948e-06 5.14708e-08)
(0.000825456 7.70358e-07 1.25909e-07)
(0.000823359 4.81571e-07 5.22549e-08)
(0.000821565 2.84443e-07 4.82625e-07)
(0.000819765 2.68718e-07 -3.90553e-08)
(0.000818024 2.40985e-07 7.30617e-08)
(0.00081635 3.3843e-07 4.62135e-08)
(0.00081458 -8.59359e-08 -4.0905e-08)
(0.000813073 -1.55536e-07 5.25989e-08)
(0.000811533 -2.05152e-07 5.1827e-08)
(0.000809987 -2.60254e-07 1.34332e-08)
(0.000808851 -3.71553e-07 -7.49043e-08)
(0.00080741 -2.0991e-07 1.25789e-07)
(0.000805753 -1.08225e-07 4.83135e-08)
(0.000804585 1.43143e-07 1.02175e-07)
(0.000803097 4.21212e-07 3.795e-08)
(0.000801288 2.31084e-07 2.45477e-07)
(0.000799972 1.16242e-07 5.90534e-08)
(0.000798359 -1.66853e-08 8.30506e-08)
(0.000796711 -5.13596e-08 -2.52499e-08)
(0.000795272 -3.32032e-08 2.13702e-08)
(0.000793609 -1.34371e-07 1.4164e-08)
(0.000792619 1.97769e-07 -1.20215e-08)
(0.000791865 6.04547e-08 5.51143e-08)
(0.000790266 -3.55754e-07 8.14059e-08)
(0.000788344 -6.29425e-07 3.48663e-08)
(0.000786953 -3.60003e-07 4.39882e-08)
(0.000785482 -4.59622e-07 1.69174e-08)
(0.000783972 -2.06197e-07 8.42403e-08)
(0.000782688 -1.36942e-07 9.1809e-08)
(0.000781224 9.79161e-09 6.15959e-08)
(0.000779915 1.21733e-07 1.03471e-09)
(0.000778682 3.79176e-07 4.85372e-08)
(0.000776851 9.76625e-07 2.76267e-08)
(0.000775223 6.49103e-07 -9.38402e-08)
(0.000774433 3.49825e-07 9.06265e-08)
(0.00103177 -0.00146147 3.49687e-05)
(-0.000635652 -0.000380893 -0.000132401)
(0.0143673 6.32852e-05 -0.000338269)
(-0.00255156 -0.00164595 -0.000676957)
(0.0169855 -0.00920881 -0.00156651)
(-0.00812547 0.000360903 -0.00177979)
(0.000706473 9.18988e-05 8.14554e-05)
(0.00101972 0.000147029 -1.63773e-06)
(0.000889262 4.37867e-05 -8.22248e-07)
(0.000863675 3.17005e-05 1.54289e-07)
(0.000846789 1.77568e-05 4.6791e-08)
(0.000837944 1.08069e-05 2.576e-08)
(0.000832486 6.56949e-06 4.9407e-08)
(0.000829243 4.27104e-06 6.94509e-08)
(0.000827045 2.57297e-06 4.75751e-08)
(0.000824851 1.5328e-06 5.59785e-08)
(0.000822924 9.33815e-07 4.81113e-08)
(0.000821256 5.00482e-07 4.61557e-08)
(0.00081964 2.34594e-07 8.8837e-09)
(0.000818172 -8.07469e-08 5.84038e-08)
(0.00081608 -4.49007e-07 1.00834e-08)
(0.000814241 -2.28484e-07 7.19233e-08)
(0.000813049 -1.34595e-07 5.89561e-08)
(0.000811569 -1.49639e-07 4.79786e-08)
(0.000810099 -3.13729e-08 7.44617e-08)
(0.000808609 9.97321e-09 -6.01643e-09)
(0.000807342 -1.52458e-07 7.36597e-08)
(0.000805827 2.16188e-08 4.86928e-08)
(0.000804469 3.27521e-07 5.39858e-09)
(0.00080323 -2.18493e-07 3.64499e-08)
(0.000801423 -2.68983e-07 9.00546e-08)
(0.000799701 -2.88653e-07 6.00976e-08)
(0.000798244 -5.8034e-07 2.76869e-08)
(0.00079687 -3.63346e-07 1.36783e-07)
(0.000795479 -7.79968e-08 7.25143e-08)
(0.000794414 1.89829e-07 4.51949e-08)
(0.000792772 4.29272e-07 1.77506e-08)
(0.000790693 8.18536e-08 4.46686e-08)
(0.000789404 -3.27851e-07 8.98743e-09)
(0.000788496 -5.13253e-07 6.55171e-08)
(0.000787128 -2.72572e-07 6.41978e-08)
(0.000785793 -3.4793e-07 7.63349e-08)
(0.000784301 -1.71331e-07 4.41374e-08)
(0.000782675 3.55625e-09 3.69689e-08)
(0.00078143 -2.28722e-08 -3.75438e-08)
(0.000780032 9.03819e-08 3.67797e-08)
(0.000778896 -1.80181e-08 1.48631e-08)
(0.000777171 -4.54717e-08 2.82853e-08)
(0.000775172 3.15257e-07 -6.55614e-09)
(0.000773836 2.24111e-07 7.1317e-08)
(0.00730575 -0.00227863 -5.69883e-05)
(0.00203596 -0.000220587 -0.000426585)
(-0.0110664 -0.0100509 0.000631871)
(-0.00498124 0.0122247 -0.00319284)
(0.00481635 -0.003806 0.0197858)
(-0.0454754 -0.0029308 -0.000770022)
(0.000585153 0.00100568 2.01474e-05)
(0.00139334 0.000152897 4.08977e-07)
(0.0013269 0.00012224 3.29264e-07)
(0.00136388 5.48599e-05 3.76874e-07)
(0.00137095 3.25709e-05 3.43664e-07)
(0.0013738 1.80732e-05 3.01987e-07)
(0.00137493 1.06088e-05 4.60002e-07)
(0.00137372 6.61805e-06 3.81443e-07)
(0.00137157 3.90244e-06 3.71937e-07)
(0.0013697 2.28956e-06 5.54704e-07)
(0.00136755 1.30894e-06 3.45139e-07)
(0.00136532 7.50053e-07 2.79618e-07)
(0.00136259 -2.22946e-08 3.72624e-07)
(0.00135958 -1.91502e-07 4.72834e-07)
(0.00135788 -6.20405e-07 3.4822e-07)
(0.00135579 -1.00979e-07 4.00062e-07)
(0.00135282 -2.78287e-07 3.62361e-07)
(0.00135036 -9.18424e-08 2.94178e-07)
(0.00134791 1.44406e-07 1.885e-07)
(0.00134539 4.20983e-07 3.43288e-07)
(0.00134322 5.39582e-07 2.88317e-07)
(0.00134142 1.29157e-07 3.41051e-07)
(0.00133801 1.2885e-07 3.14344e-07)
(0.00133478 -4.72485e-07 4.78037e-07)
(0.00133279 -1.20664e-06 2.41566e-07)
(0.00133005 -1.00002e-06 2.01394e-07)
(0.00132784 -7.78962e-07 3.4031e-07)
(0.00132633 -2.92596e-07 4.24212e-07)
(0.00132406 1.82078e-07 3.88227e-07)
(0.00132115 4.1829e-07 3.28487e-07)
(0.00131816 -1.91232e-07 4.46766e-07)
(0.00131546 2.15742e-07 2.54546e-07)
(0.00131325 6.70903e-07 1.10958e-07)
(0.00131144 7.01438e-07 3.46381e-07)
(0.00130923 2.55711e-07 2.91007e-07)
(0.00130661 1.91319e-07 3.53673e-07)
(0.00130469 -5.36451e-07 3.56313e-07)
(0.00130207 -3.63747e-07 7.11238e-07)
(0.00129946 -3.59551e-07 3.02811e-07)
(0.00129709 -4.14784e-07 3.3699e-07)
(0.0012947 -4.32042e-07 3.45438e-07)
(0.00129268 -7.73792e-07 4.47984e-07)
(0.00128978 -5.25127e-07 2.17257e-07)
(0.00128679 -3.95922e-07 3.45391e-07)
(0.0155492 -0.00258725 0.000567993)
(-0.00182027 0.0199773 -0.00246188)
(-0.0160602 0.00443476 0.000451371)
(0.0157224 0.0129405 0.00482922)
(0.000375581 -0.0105547 -0.00582264)
(0.0181556 0.0107677 -0.00132889)
(0.00107088 5.13296e-05 5.99764e-05)
(0.00117017 4.85666e-05 7.70082e-07)
(0.00137847 4.82908e-05 3.97869e-07)
(0.00131419 1.68217e-05 3.94555e-07)
(0.0013565 1.35798e-05 3.39517e-07)
(0.00136292 8.10456e-06 3.41016e-07)
(0.00136848 5.05535e-06 3.43093e-07)
(0.00136986 2.75389e-06 3.41561e-07)
(0.00136969 1.70733e-06 3.4154e-07)
(0.00136858 1.00406e-06 2.39706e-07)
(0.00136689 6.27546e-07 3.424e-07)
(0.00136449 3.72343e-07 2.63956e-07)
(0.00136239 4.68577e-07 3.41474e-07)
(0.0013603 3.33732e-07 3.12458e-07)
(0.00135771 7.06312e-07 3.42644e-07)
(0.00135508 2.54773e-07 3.76681e-07)
(0.00135269 6.58152e-07 3.3037e-07)
(0.00135075 4.97895e-07 6.21352e-07)
(0.00134835 2.69364e-07 3.27102e-07)
(0.0013457 6.48783e-08 3.50011e-07)
(0.00134279 6.36929e-08 3.10417e-07)
(0.00134009 -3.72494e-07 3.34868e-07)
(0.00133758 -1.41456e-06 4.24313e-07)
(0.00133458 -9.2076e-07 3.06239e-07)
(0.00133253 -7.40606e-07 3.68668e-07)
(0.00133078 -4.7206e-07 3.12892e-07)
(0.00132865 6.02526e-07 6.22126e-07)
(0.00132671 7.92207e-07 4.29867e-07)
(0.00132408 -2.31726e-08 3.36273e-07)
(0.00132089 -2.93613e-07 2.80707e-07)
(0.00131842 -4.21507e-08 3.28718e-07)
(0.00131634 2.63402e-07 3.78093e-07)
(0.00131369 6.4639e-07 3.17763e-07)
(0.001311 8.13105e-07 5.67246e-07)
(0.00130852 1.65479e-07 2.82577e-07)
(0.00130589 -1.15839e-07 3.23429e-07)
(0.00130369 -4.40782e-07 3.15203e-07)
(0.00130197 -7.1772e-07 1.84587e-07)
(0.00129961 -2.42182e-07 3.60427e-07)
(0.00129718 -2.8852e-07 3.4534e-07)
(0.00129488 1.15898e-07 4.62433e-07)
(0.00129245 -2.17466e-07 2.96991e-07)
(0.00128977 -5.70128e-07 3.68631e-07)
(0.00128802 -4.02338e-07 2.26545e-07)
(0.00614334 -0.00371078 -0.00210679)
(-0.0283148 0.00917399 -0.00130631)
(0.0186218 -0.0153364 0.0105464)
(0.00147627 -0.0170366 0.00236855)
(-0.000504904 9.59764e-05 -0.00120912)
(-0.000960583 0.00853915 0.000946695)
(0.00154861 0.000994315 0.000114056)
(0.00122474 -8.08801e-05 1.39047e-06)
(0.00141709 -2.9245e-05 -3.64685e-07)
(0.00132077 -1.43546e-05 3.27207e-07)
(0.00136011 -7.25401e-06 3.40527e-07)
(0.00136318 -3.86202e-06 3.57813e-07)
(0.00136826 -2.12528e-06 3.41504e-07)
(0.00136955 -1.26801e-06 3.42148e-07)
(0.0013694 -7.89131e-07 3.42333e-07)
(0.00136836 -5.29088e-07 3.40824e-07)
(0.00136676 -4.26829e-07 3.42258e-07)
(0.00136512 -4.34148e-07 4.19366e-07)
(0.00136255 -2.673e-07 3.79424e-07)
(0.00135987 -1.95733e-07 3.27797e-07)
(0.00135778 -1.36312e-07 2.66541e-07)
(0.00135573 6.39263e-08 3.36536e-07)
(0.00135312 3.21307e-07 3.73517e-07)
(0.00134987 3.49562e-07 3.03765e-07)
(0.00134736 9.83952e-08 3.47435e-07)
(0.00134514 -2.07062e-08 3.11707e-07)
(0.00134267 -2.54166e-07 2.79414e-07)
(0.00133958 -7.70238e-08 3.30046e-07)
(0.00133733 -3.35469e-08 1.49747e-07)
(0.00133563 7.41378e-07 3.18432e-07)
(0.00133336 1.22331e-06 3.47211e-07)
(0.00133173 1.11259e-06 3.22837e-07)
(0.00132942 6.91248e-07 8.08319e-07)
(0.00132554 4.54789e-07 4.60455e-07)
(0.0013227 -8.58402e-08 3.76075e-07)
(0.00132112 -1.61592e-07 3.47633e-07)
(0.00131885 3.94313e-08 3.64681e-07)
(0.00131632 -5.63043e-08 3.39771e-07)
(0.00131393 -4.06318e-08 3.34336e-07)
(0.00131084 -1.34769e-07 3.38477e-07)
(0.00130806 -1.16809e-07 6.8268e-08)
(0.00130585 -1.39781e-08 3.50208e-07)
(0.00130394 5.14763e-07 5.93502e-07)
(0.00130232 5.55548e-07 2.94818e-07)
(0.0013 4.93022e-07 3.36099e-07)
(0.00129753 4.61162e-07 3.22341e-07)
(0.00129479 5.60346e-07 3.84633e-07)
(0.00129183 3.19387e-07 3.49009e-07)
(0.00128956 1.57841e-07 3.07815e-07)
(0.001288 1.32622e-07 3.32612e-07)
(-0.00239915 0.00474998 0.00092212)
(0.000404329 -0.0190051 0.0114041)
(0.00608357 -0.00236105 -0.00120029)
(0.030779 0.00574312 -0.00149713)
(-0.0107273 -0.0049503 0.00302348)
(-0.00234321 0.0140869 -3.46339e-05)
(0.00277667 0.00380123 5.04196e-05)
(0.00143888 -8.91086e-05 1.20409e-05)
(0.00142484 -6.07349e-05 3.0172e-07)
(0.00134209 -3.61343e-05 5.89039e-07)
(0.00136978 -2.11189e-05 3.44257e-07)
(0.00136943 -1.25513e-05 3.41562e-07)
(0.00137178 -7.59242e-06 3.42398e-07)
(0.00137157 -4.59758e-06 3.42841e-07)
(0.00137064 -2.81345e-06 3.42579e-07)
(0.00136905 -1.72398e-06 3.42173e-07)
(0.00136702 -1.10228e-06 3.42947e-07)
(0.0013647 -7.82804e-07 5.41606e-07)
(0.00136269 -9.65372e-07 3.19221e-07)
(0.00136047 -9.66561e-07 3.13258e-07)
(0.00135803 -5.11552e-07 4.04908e-07)
(0.00135565 -4.29141e-07 3.3793e-07)
(0.00135305 -6.13761e-07 2.73954e-07)
(0.00135047 -3.22747e-07 3.99153e-07)
(0.00134788 5.29655e-08 2.80269e-07)
(0.00134526 3.01267e-07 2.75653e-07)
(0.00134272 4.47404e-07 3.99996e-07)
(0.00134037 6.42855e-07 3.9383e-07)
(0.0013386 1.52411e-06 3.85388e-07)
(0.00133614 1.27712e-06 4.96128e-07)
(0.00133298 1.29868e-06 3.21219e-07)
(0.0013301 1.27837e-06 -4.56181e-08)
(0.00132783 3.89559e-07 3.30084e-07)
(0.00132573 -5.85997e-08 3.32597e-07)
(0.00132331 3.98919e-07 2.51964e-07)
(0.00132105 3.42425e-07 3.15533e-07)
(0.00131855 8.64716e-08 3.26987e-07)
(0.00131624 -5.0936e-08 3.48881e-07)
(0.00131359 -5.4646e-07 2.23722e-07)
(0.0013109 -4.84971e-07 1.82527e-07)
(0.00130867 9.80548e-08 1.39046e-07)
(0.00130668 4.4395e-07 3.86768e-07)
(0.0013044 6.4596e-07 5.12979e-07)
(0.00130193 6.4175e-07 1.11116e-07)
(0.00129948 7.13221e-08 2.22762e-07)
(0.00129726 5.24024e-08 3.23386e-07)
(0.0012947 -8.62136e-08 3.89043e-07)
(0.00129194 1.50135e-07 2.28011e-07)
(0.00128953 4.47366e-07 3.16532e-07)
(0.00128766 3.9353e-07 2.37679e-07)
(-0.0128083 -0.0497034 0.000477191)
(0.000979119 -0.0087569 -0.000618411)
(-0.0120762 0.0203388 -0.0095509)
(-0.028223 0.000314903 0.0052167)
(0.0282624 -0.0103916 0.0014299)
(-0.0076597 -0.00790484 0.000522038)
(0.000359897 0.00150509 1.28485e-05)
(0.00119008 -0.000139736 6.42244e-05)
(0.00152062 -5.76045e-05 5.87024e-07)
(0.00137092 -3.91043e-05 4.11103e-07)
(0.00138979 -2.38305e-05 3.65695e-07)
(0.00138021 -1.50628e-05 3.5688e-07)
(0.00137828 -9.33654e-06 4.40732e-07)
(0.00137556 -5.86279e-06 3.44424e-07)
(0.00137302 -3.61199e-06 3.71e-07)
(0.00137051 -2.18717e-06 3.63389e-07)
(0.00136795 -1.28827e-06 3.41755e-07)
(0.0013653 -6.9015e-07 3.37248e-07)
(0.00136232 -1.81827e-07 3.24102e-07)
(0.00136045 2.52008e-07 2.08545e-07)
(0.00135845 -1.565e-07 3.71271e-07)
(0.0013556 1.124e-07 3.11477e-07)
(0.00135326 -8.05493e-09 5.56542e-07)
(0.00135071 1.71166e-08 3.76022e-07)
(0.00134814 1.35398e-08 2.54506e-07)
(0.00134563 -2.40732e-08 3.72677e-07)
(0.00134309 2.03949e-07 3.88697e-07)
(0.00134091 3.50242e-07 3.23814e-07)
(0.00133811 4.25742e-07 2.76733e-07)
(0.00133533 1.92005e-07 3.12849e-07)
(0.00133335 8.22334e-08 3.45299e-07)
(0.00133059 -2.87792e-07 3.19465e-07)
(0.00132774 3.03371e-07 8.29039e-07)
(0.00132555 1.54636e-07 3.35448e-07)
(0.00132319 2.04959e-07 3.47209e-07)
(0.00132073 1.02728e-08 3.31844e-07)
(0.00131836 -1.15044e-07 3.5156e-07)
(0.00131553 -9.76241e-08 3.34001e-07)
(0.00131339 -1.91386e-07 4.48934e-07)
(0.00131165 -3.35366e-09 2.95632e-07)
(0.00130922 2.12262e-07 3.24946e-07)
(0.00130653 3.81205e-07 4.81532e-07)
(0.00130418 3.62809e-07 3.07805e-07)
(0.0013016 2.21357e-07 3.56364e-07)
(0.00129926 -1.18903e-07 3.49452e-07)
(0.00129734 -2.94124e-07 3.23261e-07)
(0.00129491 -7.67009e-07 1.28823e-07)
(0.00129249 -6.67827e-07 1.14327e-07)
(0.00128986 -3.42406e-07 5.1731e-07)
(0.00128696 1.98624e-07 4.24021e-07)
(0.00513774 0.0274209 -0.00792841)
(0.0143532 -0.0390794 0.00184776)
(-0.00477553 -0.00518817 -0.000742024)
(0.0163115 0.00121816 0.00207805)
(-0.00278608 0.0100723 0.00111783)
(-0.00325211 0.00318853 0.000461144)
(0.00194826 0.002986 -5.93383e-06)
(0.00129214 1.26843e-05 6.24202e-05)
(0.00153159 -2.88319e-05 5.47001e-07)
(0.0013842 -2.04285e-05 3.97834e-07)
(0.00139997 -1.60383e-05 3.09154e-07)
(0.00138763 -1.10463e-05 5.21981e-07)
(0.00138333 -7.32307e-06 4.10861e-07)
(0.00137876 -4.78789e-06 3.4449e-07)
(0.00137525 -3.02602e-06 3.47165e-07)
(0.00137196 -1.84376e-06 3.39716e-07)
(0.0013689 -1.06828e-06 3.41293e-07)
(0.00136609 -4.73275e-07 3.13956e-07)
(0.00136387 -7.85406e-08 3.12604e-07)
(0.0013605 7.47253e-07 5.28467e-07)
(0.00135786 6.79791e-07 2.29154e-07)
(0.00135584 5.07443e-07 3.38924e-07)