/*--------------------------------*- C++ -*----------------------------------*\
| =========                 |                                                 |
| \\      /  F ield         | OpenFOAM: The Open Source CFD Toolbox           |
|  \\    /   O peration     | Version:  5.0                                   |
|   \\  /    A nd           | Web:      www.OpenFOAM.org                      |
|    \\/     M anipulation  |                                                 |
\*---------------------------------------------------------------------------*/
FoamFile
{
    version     2.0;
    format      ascii;
    class       surfaceVectorField;
    location    "3.6";
    object      Uf;
}
// * * * * * * * * * * * * * * * * * * * * * * * * * * * * * * * * * * * * * //

dimensions      [0 1 -1 0 0 0 0];

internalField   nonuniform List<vector> 
25642
(
(0.00917626 0.00165503 4.40515e-05)
(0.0115683 0.00119481 -0.000426987)
(0.0108096 -0.00110653 -0.000272639)
(0.000819063 0.00246361 0.00047907)
(0.00822575 0.00140776 -3.69705e-05)
(-0.0010536 0.00371184 0.0012163)
(0.0104148 -0.0028954 0.000400303)
(0.0132288 -0.000229275 -0.00141383)
(0.0158542 -0.00389977 0.000618617)
(0.00196268 -0.00128726 0.000326883)
(-0.00232686 0.00559143 0.000581493)
(0.00547855 0.00211099 0.000258122)
(-0.00648068 -0.00699116 0.000727679)
(-0.0133237 -0.0127418 0.000325832)
(-0.00621732 -0.00782727 0.000627732)
(0.0142987 -0.00198479 -0.000226609)
(8.10012e-06 0.00130212 -0.00200377)
(0.0174604 -0.0243012 0.0043362)
(0.00970582 -0.00846222 0.00165978)
(-0.0031994 0.00380577 -0.000201438)
(-0.00861458 0.00507037 0.00042607)
(-0.0119009 0.00617886 -0.00101418)
(-0.0105883 -0.000448996 0.000111059)
(0.00864442 0.004952 0.00148712)
(0.0158572 -0.00194359 0.000934822)
(0.0159686 0.014716 0.00196589)
(0.0183729 0.00993097 0.000342987)
(-0.0128585 0.00944412 0.000149075)
(0.00601536 0.0110813 -0.000325728)
(-0.00689329 0.0143065 -0.000170986)
(-0.0188634 0.0201202 -0.00192837)
(0.00134843 0.000295827 -2.33325e-06)
(0.000563277 0.000121598 3.04532e-05)
(0.000839177 0.000177549 6.05675e-05)
(0.000535423 5.87592e-05 1.58517e-05)
(0.000915732 -1.40577e-05 -3.56598e-07)
(0.000648729 1.05761e-05 -3.99391e-07)
(0.00130794 -3.55747e-05 -1.68623e-06)
(0.000737536 -1.35694e-06 -5.15118e-06)
(0.000697973 1.55451e-05 -3.5351e-06)
(0.00120739 3.93165e-05 -5.91593e-06)
(0.00115123 5.63368e-05 -1.71257e-06)
(0.00063701 -1.18238e-05 -3.58887e-06)
(0.00105296 2.54647e-05 -6.59545e-07)
(0.00102921 -1.72342e-05 -4.54836e-06)
(0.000867379 1.44049e-07 1.68509e-08)
(0.000893754 2.81017e-05 -6.25464e-07)
(0.00116409 1.54239e-05 5.13574e-08)
(0.000851133 -5.6023e-06 2.11725e-07)
(0.000847498 -2.28777e-08 -2.58222e-08)
(0.00114101 -5.53724e-06 1.79245e-07)
(0.000841122 -3.98817e-06 1.16595e-07)
(0.000844933 -5.02165e-07 1.75321e-07)
(0.00112466 -3.61313e-06 1.74548e-07)
(0.000835944 -3.03201e-06 4.00478e-08)
(0.000837782 -1.59289e-06 6.57621e-08)
(0.00111578 -3.54199e-06 1.76157e-07)
(0.00083279 -1.83502e-06 3.09416e-08)
(0.000834302 -1.32349e-06 3.79035e-08)
(0.00111117 -2.44424e-06 1.84067e-07)
(0.000829249 -1.03944e-06 5.37192e-08)
(0.000831057 -1.22799e-06 5.56348e-08)
(0.00110699 -1.19702e-06 1.708e-07)
(0.000827029 -7.38538e-07 6.42468e-08)
(0.0008283 -7.99626e-07 5.31421e-08)
(0.00110324 -8.30851e-07 1.98225e-07)
(0.000825126 -5.0522e-07 6.6212e-08)
(0.000826216 -3.94951e-07 9.39779e-08)
(0.00110068 -6.69079e-07 2.09781e-07)
(0.000823612 -2.37384e-07 5.51049e-08)
(0.000824394 -3.9498e-07 5.29927e-08)
(0.00109848 -3.86919e-07 1.82387e-07)
(0.00082141 -1.53056e-07 4.49615e-08)
(0.000822553 -3.5531e-07 6.19203e-08)
(0.00109609 -9.09678e-08 1.39413e-07)
(0.000819787 -1.93242e-07 5.95262e-08)
(0.000820789 3.66972e-08 7.41413e-08)
(0.00109348 -2.45038e-07 1.73208e-07)
(0.000818509 -1.47613e-07 6.85981e-08)
(0.000819272 1.407e-08 5.80438e-08)
(0.00109151 -2.41092e-07 2.01637e-07)
(0.000816843 -3.48436e-08 5.52005e-08)
(0.000817725 -7.65069e-08 4.14126e-08)
(0.00108971 -1.51053e-07 1.86992e-07)
(0.000815262 1.4957e-08 6.21424e-08)
(0.00081605 6.76419e-08 6.0134e-08)
(0.00108751 7.90845e-08 1.59853e-07)
(0.000813757 -3.11414e-09 5.77174e-08)
(0.000814442 -7.52349e-07 8.64526e-08)
(0.00108538 9.53658e-09 2.28228e-07)
(0.000812151 8.82466e-08 6.51066e-08)
(0.000813042 -7.02552e-08 4.05042e-08)
(0.00108335 2.08923e-08 1.84289e-07)
(0.000811049 1.75019e-07 3.8417e-08)
(0.000811582 -1.32881e-06 5.81817e-08)
(0.00108157 2.56199e-07 2.42559e-07)
(0.000809036 1.79909e-07 2.39269e-08)
(0.000809871 3.79855e-08 1.8002e-08)
(0.00107946 2.80688e-07 1.32357e-07)
(0.000807615 1.3653e-07 5.26283e-08)
(0.000808314 8.16275e-10 4.6314e-08)
(0.00107715 2.78795e-07 1.83582e-07)
(0.000806136 1.4288e-07 2.81753e-08)
(0.000806989 -4.50261e-10 5.01207e-08)
(0.00107545 1.20183e-07 1.81637e-07)
(0.000804564 3.88716e-08 3.39637e-08)
(0.000805291 -1.72653e-07 3.59427e-08)
(0.00107322 2.41775e-07 1.33722e-07)
(0.000803135 -2.77834e-07 7.20092e-08)
(0.00080355 2.43179e-07 3.79674e-08)
(0.00107112 -2.04655e-07 1.87726e-07)
(0.000801169 -4.56449e-07 2.56658e-08)
(0.000802057 -7.31735e-07 -2.6839e-08)
(0.00106901 -6.52837e-07 3.72477e-07)
(0.000799775 -3.98928e-07 2.73862e-08)
(0.000800538 -6.38477e-07 -6.81429e-09)
(0.00106665 -6.60944e-07 3.25062e-07)
(0.000798064 -1.06098e-07 9.11008e-08)
(0.000799204 -9.84503e-08 1.04003e-07)
(0.00106459 -4.41594e-07 1.86658e-07)
(0.000797363 1.35646e-07 7.73786e-08)
(0.000797969 -2.25222e-06 7.4115e-08)
(0.00106317 1.28569e-07 2.67389e-07)
(0.000795823 2.64153e-07 4.64562e-08)
(0.00079654 1.0925e-07 5.04243e-08)
(0.00106172 2.23726e-07 1.78668e-07)
(0.000793668 2.70738e-07 4.20167e-08)
(0.000794778 -1.95555e-08 5.64179e-08)
(0.00105914 4.99887e-07 8.59255e-08)
(0.000792259 2.39881e-07 4.39823e-08)
(0.000793141 2.1875e-07 4.78458e-08)
(0.00105672 2.19197e-07 1.72201e-07)
(0.000790559 4.34481e-07 5.48552e-08)
(0.000791718 4.11004e-07 2.54497e-08)
(0.00105456 4.03234e-07 1.5443e-07)
(0.000790075 3.8217e-07 8.87684e-08)
(0.000790247 -1.89558e-06 8.4677e-08)
(0.00105317 7.60179e-07 2.02842e-07)
(0.000788191 1.20618e-07 6.80039e-08)
(0.00078878 3.61343e-07 9.04682e-08)
(0.00105172 3.06237e-07 1.79874e-07)
(0.000786703 2.07369e-08 5.1876e-08)
(0.00078728 4.21231e-08 4.49639e-08)
(0.0010494 7.35402e-08 1.75471e-07)
(0.000785152 -1.13192e-07 2.99262e-08)
(0.000785769 -4.68989e-08 7.54146e-08)
(0.00104727 1.82828e-08 1.73903e-07)
(0.000784111 -3.07442e-07 3.57947e-10)
(0.000784391 -2.32778e-07 -1.25501e-08)
(0.00104578 -3.14338e-07 1.24768e-07)
(0.000782126 -2.57548e-07 2.65661e-08)
(0.000783045 1.89716e-06 5.41665e-08)
(0.00104366 -4.84612e-07 1.06695e-07)
(0.000780618 -1.12665e-07 4.89631e-08)
(0.000781555 -2.46062e-07 4.5806e-08)
(0.00104131 -1.87353e-07 1.70548e-07)
(0.000779078 -2.11268e-08 5.51031e-08)
(0.000780036 1.85274e-07 5.99863e-08)
(0.00103929 -1.65709e-07 1.74111e-07)
(0.000778274 -2.58726e-08 5.49689e-08)
(0.000778687 -7.12946e-07 5.11865e-08)
(0.00103763 3.95133e-08 1.58989e-07)
(0.000776679 -2.44155e-07 5.42656e-08)
(0.000777355 1.45182e-07 4.32636e-08)
(0.00103624 -1.80309e-07 1.79559e-07)
(0.000774949 -3.52941e-07 3.15356e-08)
(0.000775767 -3.09761e-07 -1.28293e-08)
(0.00103385 -5.02043e-07 2.13155e-07)
(0.000774445 8.89332e-07 6.36663e-08)
(0.00103166 -4.24499e-07 1.13003e-07)
(0.0122444 -0.00311423 0.000157744)
(0.00406064 -0.00165063 5.63327e-05)
(0.0115553 -2.64303e-05 -0.000792066)
(-0.00458037 -0.00631899 0.00104553)
(0.0220226 0.00436947 0.00100833)
(-0.0161422 -0.0169796 0.000337672)
(0.0130534 0.000528043 -0.00268092)
(-0.0155639 -0.0257378 0.00251493)
(0.00872278 -0.0178089 -0.000317073)
(0.00373122 -0.0116885 0.000986243)
(-0.0384403 0.00303543 -0.00918473)
(-0.0315572 -0.0236677 0.00139503)
(-0.0573496 -0.0140859 0.00355369)
(0.00247659 -0.0197523 -0.00440448)
(-0.00180006 -0.012368 0.000580731)
(-0.00292483 0.00155777 1.60361e-05)
(-0.0147886 -0.000780401 -0.000272148)
(-0.0112858 0.00302162 0.000502273)
(-0.00471345 -0.00504706 -0.00140361)
(0.026855 -0.00739199 -0.000443524)
(0.0161299 -0.00114032 -0.000791384)
(0.0601651 -0.00163182 -0.00115018)
(0.0172862 -0.00312652 1.17586e-06)
(0.0022679 -0.0144751 0.000185677)
(0.0294096 -0.0372073 0.00141033)
(0.0095441 0.00233968 -0.00401701)
(0.0175352 -0.00466804 -0.00807538)
(0.00041413 -0.0108874 0.000129707)
(0.00578752 -0.00844847 -0.000461556)
(-0.0152467 0.00904848 3.55031e-06)
(-0.00579771 -0.00548505 -0.00201387)
(-0.00222262 -0.00518564 -0.000259053)
(0.00430469 -1.8798e-05 -2.55057e-05)
(0.004915 -0.00689366 0.000292894)
(0.00278687 -0.00159964 0.000191916)
(0.00244582 -0.00778035 -8.57164e-05)
(0.00662175 -0.00145602 0.000702015)
(0.00161954 -0.000297329 6.90823e-05)
(0.000364836 -3.38299e-05 4.28464e-05)
(0.000512773 4.03298e-05 2.53161e-05)
(0.000556078 -7.398e-06 9.80194e-05)
(0.000397712 -2.20405e-06 2.7523e-05)
(0.000509765 1.63186e-05 -3.0547e-07)
(0.000509104 7.02114e-06 -2.91229e-06)
(0.000483744 1.94675e-05 3.9567e-07)
(0.000779283 3.26017e-05 -5.1913e-07)
(0.000847591 1.26124e-05 -6.68333e-07)
(0.00090961 1.27966e-05 -1.45563e-06)
(0.00120108 3.04238e-05 -1.03736e-06)
(0.000623741 3.92538e-06 -3.76874e-06)
(0.00062638 1.19752e-05 -5.05551e-06)
(0.00101954 7.64292e-08 -4.72845e-06)
(0.00101987 1.51453e-05 -6.6493e-06)
(0.000843835 1.67992e-06 -6.2292e-08)
(0.000833819 3.97564e-06 -4.11734e-07)
(0.00110872 2.88175e-06 9.37523e-08)
(0.000839442 6.61986e-07 1.24524e-07)
(0.000843663 2.62439e-06 1.83835e-07)
(0.00112196 2.07856e-06 2.11256e-07)
(0.000835641 -1.33761e-07 6.36269e-08)
(0.000836789 1.22612e-06 4.76567e-08)
(0.00111399 2.29276e-07 1.80124e-07)
(0.000832453 -4.13988e-07 6.2591e-08)
(0.000833954 6.53021e-07 6.63789e-08)
(0.00111058 -1.46734e-07 1.85348e-07)
(0.000829701 -4.67371e-07 5.50585e-08)
(0.000830993 2.3383e-07 5.62052e-08)
(0.00110687 -6.36635e-07 1.82919e-07)
(0.000827364 -2.9135e-07 8.286e-08)
(0.000828522 1.41955e-07 5.58883e-08)
(0.00110374 -3.95326e-07 1.82646e-07)
(0.00082537 -1.16639e-07 8.07719e-08)
(0.000826436 2.83986e-07 8.31169e-08)
(0.00110101 -2.62304e-07 1.71782e-07)
(0.000823406 4.00457e-08 5.98052e-08)
(0.000824591 1.59282e-07 5.39396e-08)
(0.00109849 -3.95501e-09 1.77746e-07)
(0.000821756 2.18485e-07 9.10961e-08)
(0.000822777 -2.69721e-07 5.02862e-08)
(0.00109608 9.37661e-08 1.82565e-07)
(0.000820291 3.10559e-07 7.2664e-08)
(0.000820903 -3.1012e-07 1.08735e-07)
(0.00109403 4.36205e-07 1.96782e-07)
(0.000818558 2.64633e-07 3.08637e-08)
(0.000819214 8.44212e-08 3.49482e-08)
(0.00109195 3.42579e-07 1.91319e-07)
(0.000816872 2.17573e-07 4.63401e-08)
(0.000817666 -1.21977e-07 3.37048e-08)
(0.0010897 3.58908e-07 1.95041e-07)
(0.000815208 2.6274e-07 8.44358e-08)
(0.000816105 1.48034e-07 5.56357e-08)
(0.00108746 2.32621e-07 1.84512e-07)
(0.000813705 3.34766e-07 6.92541e-08)
(0.00081453 3.88371e-07 6.50947e-08)
(0.00108528 4.87372e-07 9.69155e-08)
(0.000812479 2.59592e-07 3.35737e-08)
(0.000812946 -1.03536e-06 -2.15562e-08)
(0.00108361 4.46958e-07 2.196e-07)
(0.000810508 5.74977e-08 3.77794e-08)
(0.000811328 -2.93486e-08 4.11967e-08)
(0.0010815 2.855e-07 1.26741e-07)
(0.000808967 -3.2247e-08 4.03801e-08)
(0.000809758 2.47972e-07 3.99002e-08)
(0.00107905 -7.57989e-08 1.65378e-07)
(0.000807773 -6.31124e-08 4.38052e-08)
(0.000808276 -4.49801e-07 4.8059e-08)
(0.0010772 4.69721e-08 1.81289e-07)
(0.000806187 -3.09855e-07 5.78926e-08)
(0.000806682 1.35698e-07 5.265e-08)
(0.00107539 -2.0415e-07 1.74715e-07)
(0.00080424 -4.67525e-07 3.99457e-08)
(0.000805096 -6.7433e-07 3.57423e-08)
(0.00107305 -6.95788e-07 2.51504e-07)
(0.000802514 -3.90038e-07 -6.08604e-08)
(0.000803649 2.23225e-06 3.96386e-08)
(0.00107046 -6.3622e-07 5.64684e-08)
(0.000801328 -2.28218e-07 -5.93254e-08)
(0.000802261 1.86332e-07 1.61932e-08)
(0.00106867 -4.44727e-07 8.43565e-08)
(0.000799965 1.35374e-07 6.97679e-08)
(0.000800992 4.08631e-07 3.61149e-08)
(0.00106702 -2.05326e-07 9.06668e-08)
(0.000799126 4.93533e-07 8.70267e-08)
(0.000799651 -2.37666e-06 6.1168e-08)
(0.00106552 5.63748e-07 2.79971e-07)
(0.000797132 4.31828e-07 4.71681e-08)
(0.00079789 -1.87054e-06 2.93695e-08)
(0.00106373 7.81813e-07 1.93953e-07)
(0.00079563 2.34409e-07 6.03841e-08)
(0.000796291 1.91732e-07 6.709e-08)
(0.00106135 3.63116e-07 1.71574e-07)
(0.000794062 2.27321e-07 6.22497e-08)
(0.000794768 2.03676e-07 5.92064e-08)
(0.0010592 2.12765e-07 1.67493e-07)
(0.000792703 3.10083e-07 2.93201e-08)
(0.000793243 1.74181e-07 6.04584e-08)
(0.00105722 3.38583e-07 1.68059e-07)
(0.000791334 4.76417e-07 5.52531e-08)
(0.000791925 1.42752e-07 3.19426e-08)
(0.00105559 4.60689e-07 1.85236e-07)
(0.000789042 4.36974e-07 8.6375e-08)
(0.000790196 -6.22025e-07 6.53287e-08)
(0.00105305 8.06454e-07 1.57321e-07)
(0.000787772 1.72942e-07 6.74424e-08)
(0.000788449 1.18351e-07 8.90437e-08)
(0.00105061 4.02549e-07 1.74813e-07)
(0.000786415 3.12331e-09 6.84932e-08)
(0.000787067 -6.27048e-08 7.09039e-08)
(0.00104894 1.08527e-07 1.72817e-07)
(0.000784968 -1.29495e-07 3.29653e-08)
(0.000785604 -9.34579e-08 1.95607e-08)
(0.001047 -9.819e-08 1.76928e-07)
(0.000783285 -3.03767e-07 4.12379e-08)
(0.000784174 5.33168e-08 4.9096e-08)
(0.00104489 -2.55955e-07 1.74542e-07)
(0.000782551 -2.4749e-07 7.34089e-08)
(0.000783117 1.89822e-07 9.13579e-08)
(0.00104344 -5.71005e-07 2.33181e-07)
(0.000780945 -4.43816e-08 5.68248e-08)
(0.00078181 -9.73671e-09 4.48411e-08)
(0.0010418 -1.23074e-07 1.71548e-07)
(0.000779541 1.71626e-07 5.60723e-08)
(0.000780306 6.48552e-08 8.66922e-08)
(0.0010398 -6.01883e-08 1.79386e-07)
(0.000777886 2.12181e-07 3.94836e-08)
(0.000778737 -1.12087e-06 8.57591e-08)
(0.00103782 4.45526e-07 2.23388e-07)
(0.000776405 -8.42359e-09 -2.38142e-08)
(0.000777079 2.72611e-07 5.12425e-08)
(0.00103566 7.21512e-08 1.687e-07)
(0.000775167 -1.30626e-07 1.92782e-08)
(0.000775617 1.11208e-07 -4.83546e-08)
(0.00103378 -1.51937e-07 1.25236e-07)
(0.000774607 -1.30172e-07 1.12982e-07)
(0.00103239 -2.4424e-07 2.33365e-07)
(0.00237008 5.43075e-05 -0.00589727)
(0.00848546 -3.75924e-05 -0.000371441)
(0.0107847 -0.00517865 -0.000506957)
(0.00271417 -0.0052324 0.000182172)
(-0.00682067 0.00657976 -0.00253572)
(-0.0201133 -0.000727372 -0.00434781)
(0.00405074 -0.00400583 -0.000406157)
(-0.00383313 -0.0131744 -0.00116468)
(-0.0102793 0.00312352 -0.000698099)
(0.0201924 0.00624448 -0.00131825)
(0.0122105 0.00951114 -0.00152386)
(0.0238327 -0.0040649 -0.00039473)
(0.0199823 -0.0105347 0.000249587)
(0.001173 0.00122979 -0.00207607)
(-0.00639368 -0.000134716 0.000173325)
(-0.0111322 -0.000571687 0.000512549)
(-0.0073067 -0.00538455 0.000885709)
(-0.00327678 -0.010209 0.00118121)
(-0.00124999 0.00474912 0.00120173)
(-0.0121137 0.00185964 0.000363636)
(0.00112336 0.00168853 -0.00062437)
(-0.0038624 -0.00326022 6.22181e-05)
(0.0117915 0.00483588 0.0116224)
(0.000385803 0.000397367 0.000948107)
(-0.00196775 0.00722978 -0.0117359)
(0.0115087 -0.000182159 1.83872e-05)
(0.00954065 -0.0222606 0.00034323)
(0.00376366 -0.00883741 -0.000774341)
(0.0112991 -0.0010969 -0.00162222)
(0.00132515 0.00204388 0.000304182)
(0.000233751 0.00337586 0.000158349)
(-0.00118057 -0.00164483 -0.000226219)
(-0.000395612 -0.00480326 3.84202e-05)
(0.00337473 -0.00745059 0.000133742)
(0.0011063 -0.0151067 0.000663132)
(0.000865854 0.000164286 8.3815e-05)
(0.00127449 0.000604156 9.58786e-05)
(0.000969173 0.000354992 0.000117535)
(0.000844506 0.000754345 4.11705e-05)
(0.000577326 0.000255462 6.21528e-05)
(0.000324918 -1.04892e-05 -1.55417e-06)
(0.000501799 -5.88832e-06 -3.09946e-06)
(0.000489758 -1.38776e-05 3.82687e-07)
(0.000774374 -2.33572e-05 -9.42308e-07)
(0.00035221 -3.37487e-05 -3.27088e-07)
(0.000585426 -2.59746e-05 3.18323e-06)
(0.000661527 -8.72236e-05 4.33976e-06)
(0.00048092 -2.16427e-06 9.05043e-08)
(0.000846223 7.50796e-06 -1.19937e-06)
(0.000898499 1.07208e-05 -1.7147e-06)
(0.00121003 8.17467e-06 -1.10908e-06)
(0.000626481 2.73843e-06 -3.91244e-06)
(0.000633196 1.62479e-05 -5.37969e-06)
(0.00102407 -2.48188e-06 -4.94302e-06)
(0.00103926 2.63273e-05 -6.82702e-06)
(0.000842629 4.9575e-06 -1.65803e-07)
(0.000830631 8.74193e-06 -4.36061e-07)
(0.00110557 6.01466e-06 2.72409e-08)
(0.000838483 3.04513e-06 1.07011e-07)
(0.000841287 5.49003e-06 1.74126e-07)
(0.00112136 3.82394e-06 2.08847e-07)
(0.000835022 1.82621e-06 5.04026e-08)
(0.000835274 3.64801e-06 3.83069e-08)
(0.00111301 2.32708e-06 1.794e-07)
(0.000832156 1.08438e-06 5.99964e-08)
(0.000833033 2.23946e-06 6.27434e-08)
(0.0011101 1.38156e-06 1.84811e-07)
(0.000829626 6.65967e-07 5.70351e-08)
(0.000830473 1.41148e-06 5.53132e-08)
(0.00110668 8.14075e-07 1.8308e-07)
(0.000827402 4.39245e-07 5.61364e-08)
(0.000828241 9.30987e-07 5.35547e-08)
(0.00110372 5.29524e-07 1.83688e-07)
(0.000825611 2.87585e-07 5.62941e-08)
(0.000826248 5.82477e-07 5.2414e-08)
(0.00110117 3.56533e-07 1.80734e-07)
(0.000823955 1.78409e-07 4.44218e-08)
(0.000824456 1.84486e-07 5.39525e-08)
(0.00109893 2.11821e-07 1.87667e-07)
(0.000821921 9.4562e-08 6.79059e-08)
(0.000822673 4.15963e-07 3.52032e-08)
(0.00109664 1.09276e-07 1.74334e-07)
(0.000819693 7.48273e-08 7.10425e-08)
(0.00082088 5.98559e-07 6.37388e-08)
(0.00109379 9.75315e-09 1.75788e-07)
(0.000818359 8.00203e-08 3.77897e-08)
(0.000819221 -7.55028e-08 3.29326e-08)
(0.00109141 8.45371e-08 1.72489e-07)
(0.000816855 7.8088e-08 4.29934e-08)
(0.000817663 -2.82613e-07 4.42872e-08)
(0.00108957 5.39534e-08 1.87208e-07)
(0.000815456 1.27456e-07 3.62915e-08)
(0.000816167 -3.38029e-08 4.96047e-08)
(0.00108767 1.07488e-07 1.7983e-07)
(0.000813751 1.82539e-07 -2.5688e-08)
(0.000814598 3.60056e-07 2.77842e-08)
(0.00108564 2.17654e-07 1.96084e-07)
(0.00081184 1.21424e-07 -1.39531e-08)
(0.000812869 -9.96113e-08 2.53441e-09)
(0.0010831 2.86122e-07 1.46704e-07)
(0.00081047 7.06502e-08 4.33179e-08)
(0.000811264 -1.76284e-07 3.755e-08)
(0.00108092 4.51183e-08 1.75216e-07)
(0.000809092 9.73171e-08 4.75765e-08)
(0.000809791 -1.34895e-07 3.47045e-08)
(0.00107916 1.28408e-07 1.92625e-07)
(0.000807227 4.59839e-08 5.69023e-08)
(0.000808211 5.77793e-08 5.94946e-08)
(0.001077 1.13176e-07 1.72882e-07)
(0.000805631 -4.9451e-08 3.0505e-08)
(0.000806563 -1.92068e-08 5.76245e-08)
(0.00107452 1.46473e-08 1.95977e-07)
(0.00080436 8.86925e-08 3.5434e-08)
(0.000805268 5.29986e-07 -1.30678e-08)
(0.00107269 -1.0859e-07 7.17786e-08)
(0.000803517 3.64595e-07 1.167e-07)
(0.000803993 8.25193e-07 5.53203e-08)
(0.00107144 4.13794e-07 2.18374e-07)
(0.000801796 4.81583e-07 1.11627e-07)
(0.000802404 3.99174e-07 1.14089e-07)
(0.00106955 6.70242e-07 1.81521e-07)
(0.000800766 4.74876e-07 2.75071e-08)
(0.000800981 5.37605e-07 3.71894e-08)
(0.00106791 7.13422e-07 1.26241e-07)
(0.000798498 2.83595e-07 3.52078e-09)
(0.000799409 -2.23471e-08 2.10915e-08)
(0.00106582 5.87681e-07 7.80311e-08)
(0.000796885 6.18124e-08 4.92797e-08)
(0.000797612 1.52339e-07 3.1307e-08)
(0.00106291 1.93573e-07 4.32145e-08)
(0.000795579 -6.579e-08 6.59148e-08)
(0.000796132 -1.49248e-08 3.35691e-08)
(0.00106101 -1.3934e-08 1.74685e-07)
(0.000793801 -7.74944e-08 5.74148e-08)
(0.000794754 8.43843e-07 5.19515e-08)
(0.0010591 -1.77774e-07 1.56487e-07)
(0.000792492 -4.77381e-08 6.30897e-08)
(0.000793281 -1.79843e-07 5.61391e-08)
(0.00105702 -2.81662e-08 1.85795e-07)
(0.00079098 -1.42815e-07 4.20078e-08)
(0.000791806 -3.95608e-08 4.99014e-08)
(0.00105514 -8.17161e-08 1.91829e-07)
(0.00078936 -1.17989e-07 6.799e-08)
(0.000790227 -2.31595e-07 2.48609e-08)
(0.0010531 -2.72137e-07 1.60399e-07)
(0.000787788 -2.1958e-08 9.25109e-08)
(0.000788569 7.04889e-07 7.72216e-08)
(0.00105085 -3.08534e-08 1.42266e-07)
(0.000786303 -2.70907e-08 2.19872e-08)
(0.000787061 1.48915e-08 5.84839e-08)
(0.00104877 -4.05181e-08 1.71258e-07)
(0.000784802 1.34673e-07 3.56823e-08)
(0.000785805 -5.75381e-08 -1.09057e-08)
(0.00104681 -2.9069e-08 1.75828e-07)
(0.000783789 3.20684e-07 9.92031e-08)
(0.000784405 -1.37245e-06 6.45426e-08)
(0.00104519 4.25086e-07 2.37778e-07)
(0.000782662 3.00147e-07 6.28044e-08)
(0.000783089 3.55035e-07 1.45068e-08)
(0.00104383 4.83419e-07 1.33154e-07)
(0.000781054 2.60112e-07 7.46958e-08)
(0.000781758 -4.34128e-08 3.24622e-08)
(0.00104195 3.97566e-07 1.91315e-07)
(0.000779603 2.66719e-07 1.16379e-07)
(0.000780312 -1.58206e-08 7.95106e-08)
(0.00104 3.87602e-07 1.80748e-07)
(0.000777812 3.34494e-07 9.75285e-08)
(0.00077882 -6.27998e-08 9.82616e-08)
(0.0010378 3.80963e-07 1.28988e-07)
(0.000776342 3.20461e-07 2.67324e-08)
(0.00077706 3.62116e-07 6.23522e-08)
(0.00103549 5.19679e-07 1.70445e-07)
(0.000774819 1.92963e-07 4.53007e-08)
(0.000775455 1.69448e-07 1.03785e-08)
(0.00103347 3.11131e-07 1.77787e-07)
(0.000774365 -1.19769e-06 1.36747e-07)
(0.00103216 1.83736e-07 2.09609e-07)
(-0.00499787 -0.00560709 0.000281216)
(-0.00788264 -0.00978655 0.000376625)
(-0.0010271 -0.000655249 0.00120486)
(0.00281538 0.00145819 -4.85313e-07)
(0.00515338 -0.00197679 0.00148409)
(0.00436227 0.00584523 0.00182645)
(-0.00371955 -0.00762714 0.00338744)
(-0.00500821 -0.00945127 0.0012976)
(0.00616306 -0.00319599 0.00560781)
(-0.00973873 -0.00905958 0.057613)
(-0.00426537 -0.00322547 -0.0636852)
(0.0250291 -0.0171564 -0.0065289)
(-0.000601116 -0.00178193 0.00028516)
(0.0190025 -0.0106277 -2.40092e-06)
(0.00878095 -0.00424012 0.00113716)
(0.00480481 -0.000111998 0.00049201)
(0.00432511 -0.000409907 0.000959266)
(-0.0049737 -0.000726876 2.23612e-05)
(-0.00555279 -0.00887766 0.000561052)
(-0.00343328 -0.00637192 -0.000255965)
(-0.0158181 -0.00481256 0.000116228)
(0.00245821 0.00561419 -0.000401412)
(-0.00449581 0.0163747 -0.000895133)
(0.00134297 0.0132199 3.08767e-05)
(-0.000756554 0.00582133 -0.00140938)
(0.000126974 0.00231077 -0.000332458)
(0.00482908 0.00973175 -0.00136683)
(0.00977219 0.00548527 -0.00173683)
(0.00943381 -0.0061006 -0.00212111)
(-0.0125475 0.0093806 -0.00146877)
(-0.000335541 -0.00136251 0.00258734)
(-0.00471336 -0.00879733 0.00980188)
(-0.00998549 0.00582917 -0.011184)
(0.00178666 0.00516811 0.000199705)
(-0.000825593 0.00500081 0.000124454)
(-0.000216284 0.00202611 2.29893e-05)
(-0.00222635 -0.000772979 6.54447e-05)
(-0.00249166 0.00241766 0.000348737)
(0.000444978 0.00128869 5.32858e-06)
(0.000726133 0.000963454 1.51406e-05)
(3.15323e-05 0.000726376 1.02931e-05)
(0.000765629 0.00139451 1.06429e-07)
(0.000633672 0.000615357 3.39995e-05)
(0.000367112 -9.79156e-05 2.48259e-05)
(0.00038229 -1.44558e-05 3.14379e-06)
(0.000352609 -1.40026e-05 6.61278e-06)
(0.000540541 -3.29553e-05 9.21068e-06)
(0.000257903 -1.55463e-05 6.30082e-08)
(0.000838032 7.91151e-06 -9.51806e-07)
(0.000901955 1.0573e-05 -1.32214e-06)
(0.00117765 6.31656e-06 -1.22169e-06)
(0.000623605 1.40315e-05 -3.99874e-06)
(0.000610373 -6.91277e-06 -4.89497e-06)
(0.00104549 2.00098e-05 -4.65171e-06)
(0.00101177 -2.83313e-05 -5.56236e-06)
(0.000838578 6.31096e-06 -9.63319e-08)
(0.000828681 7.4047e-06 -5.2044e-07)
(0.00110333 6.10099e-06 9.37152e-08)
(0.000835848 4.72243e-06 1.05465e-07)
(0.000839321 6.54327e-06 1.72316e-07)
(0.00111741 5.21636e-06 2.11704e-07)
(0.000833383 3.19565e-06 5.06397e-08)
(0.000833377 4.76284e-06 4.11006e-08)
(0.00111097 3.89121e-06 1.82543e-07)
(0.000831113 2.07995e-06 5.80626e-08)
(0.000831644 3.04413e-06 8.37354e-08)
(0.00110871 2.44937e-06 1.86432e-07)
(0.000828989 1.47801e-06 5.18333e-08)
(0.000829724 2.07667e-06 5.1285e-08)
(0.00110582 1.73519e-06 1.83272e-07)
(0.000826944 1.04373e-06 4.98326e-08)
(0.0008277 1.51927e-06 4.59884e-08)
(0.00110317 1.33294e-06 1.82496e-07)
(0.000825043 5.84087e-07 5.00718e-08)
(0.000825674 9.93478e-07 3.98949e-08)
(0.00110061 8.8738e-07 1.82614e-07)
(0.000823215 1.68365e-07 4.47398e-08)
(0.000823937 4.74932e-07 4.97877e-08)
(0.00109819 3.39435e-07 1.84084e-07)
(0.000821581 -1.41862e-07 3.10269e-08)
(0.000822286 2.84902e-07 4.48108e-08)
(0.00109584 -4.30957e-08 1.96263e-07)
(0.00082034 -2.37722e-07 2.56388e-08)
(0.000820761 3.47359e-07 1.33724e-07)
(0.001094 -3.95967e-07 1.70936e-07)
(0.000818524 -1.53475e-07 3.94265e-08)
(0.000819328 2.41263e-07 5.05111e-08)
(0.00109201 -2.99794e-07 1.81318e-07)
(0.00081694 -1.10595e-07 5.08968e-08)
(0.000817718 -3.12633e-08 5.81997e-08)
(0.00108973 -1.79125e-07 1.6537e-07)
(0.000815341 -1.46495e-07 4.11044e-08)
(0.000816123 2.31032e-08 5.83847e-08)
(0.00108766 -1.68803e-07 1.80627e-07)
(0.000813723 -1.55104e-07 5.60147e-08)
(0.000814589 -1.57951e-07 2.50966e-08)
(0.0010855 -2.76863e-07 2.22641e-07)
(0.000812268 -3.95109e-08 5.40264e-08)
(0.000813015 -6.4683e-07 7.85405e-08)
(0.0010834 -1.82601e-07 2.10479e-07)
(0.000810539 1.09184e-07 2.89376e-08)
(0.00081145 3.94171e-09 4.9968e-08)
(0.0010813 4.51843e-08 1.83726e-07)
(0.000808987 1.97582e-07 4.66148e-08)
(0.000809901 -6.79955e-08 4.89042e-08)
(0.00107913 2.20309e-07 1.76311e-07)
(0.000807498 3.41268e-07 6.02173e-08)
(0.000808389 3.49769e-09 6.5701e-08)
(0.00107706 3.06503e-07 1.79262e-07)
(0.000806142 6.18306e-07 1.40739e-08)
(0.000806906 6.14365e-07 6.26937e-08)
(0.00107511 6.33591e-07 1.19431e-07)
(0.000804921 7.29831e-07 6.79699e-09)
(0.000805404 8.517e-07 1.004e-07)
(0.00107354 1.10676e-06 1.29607e-07)
(0.000802947 5.41746e-07 5.26915e-08)
(0.000803754 2.10562e-07 3.05025e-08)
(0.00107143 9.56232e-07 2.62278e-07)
(0.000801501 4.51693e-07 3.96755e-08)
(0.000802288 3.81599e-07 5.97728e-08)
(0.00106904 6.12513e-07 1.73555e-07)
(0.000799814 2.35284e-07 3.07788e-08)
(0.000800708 -7.06698e-07 3.01316e-08)
(0.00106691 7.43351e-07 2.81666e-07)
(0.000798355 -6.9302e-08 4.88745e-08)
(0.000799027 -9.05382e-08 7.14041e-08)
(0.00106487 1.8477e-08 1.78101e-07)
(0.000796859 -7.01954e-08 1.55958e-08)
(0.00079761 5.98889e-08 5.22505e-08)
(0.00106297 -1.22636e-07 1.83303e-07)
(0.000795351 -9.18359e-08 1.96001e-08)
(0.000796105 -7.56789e-08 1.4851e-08)
(0.00106089 -1.22808e-08 1.82366e-07)
(0.000794175 -1.22642e-07 5.06745e-08)
(0.000794715 5.60023e-08 5.64762e-08)
(0.00105918 -1.63142e-07 2.0471e-07)
(0.000792633 -5.26115e-08 4.29527e-08)
(0.000793368 -5.37636e-08 3.59492e-08)
(0.00105734 -1.18157e-07 1.72294e-07)
(0.000791067 -1.2958e-07 3.27622e-08)
(0.00079171 6.28834e-08 4.82874e-08)
(0.00105528 -2.70198e-08 1.76212e-07)
(0.000789419 -2.71507e-07 3.40763e-08)
(0.000790051 -3.12837e-07 3.34887e-08)
(0.00105311 -3.56613e-07 1.96847e-07)
(0.000787824 -1.55344e-07 4.32004e-08)
(0.000788715 8.55365e-07 6.77431e-08)
(0.0010509 -4.11547e-07 1.75717e-07)
(0.000786485 9.06585e-08 2.56123e-08)
(0.000787368 6.73196e-08 4.80112e-08)
(0.00104894 -1.56039e-08 1.59847e-07)
(0.000785573 2.71648e-07 1.79314e-08)
(0.00078603 4.06716e-07 7.03673e-08)
(0.00104758 2.94975e-07 9.17987e-08)
(0.000783475 3.74363e-07 -2.01384e-08)
(0.000784532 6.92765e-08 1.7817e-08)
(0.00104553 4.90832e-07 1.28455e-07)
(0.000782342 2.40496e-07 -1.58409e-08)
(0.00078292 -1.72936e-06 -1.21559e-07)
(0.0010434 5.46665e-07 2.96682e-07)
(0.000780961 6.24859e-08 3.72626e-08)
(0.000781534 1.74767e-07 3.61169e-08)
(0.00104168 1.16379e-07 1.52465e-07)
(0.000779598 4.59448e-08 6.13872e-08)
(0.000780291 2.08493e-08 4.71394e-08)
(0.00103977 6.79015e-08 1.6424e-07)
(0.0007781 1.73706e-07 6.30963e-08)
(0.00077898 9.06486e-07 4.50118e-08)
(0.00103798 4.09983e-08 1.08754e-07)
(0.000776114 2.31126e-07 4.60141e-08)
(0.000777131 1.03316e-06 3.98798e-08)
(0.00103557 3.71266e-07 1.75036e-07)
(0.000774828 2.10839e-07 1.01786e-07)
(0.000775427 1.49242e-08 5.35688e-08)
(0.00103335 2.22751e-07 1.71711e-07)
(0.000774103 -1.37027e-06 1.04613e-07)
(0.00103177 3.47268e-07 1.95571e-07)
(-0.00280647 -0.00725592 0.000213799)
(0.000249481 -0.0134684 -0.000158845)
(0.00678764 -0.0129169 0.000154283)
(0.0426343 0.0100828 0.00390852)
(0.0311191 -0.00783595 -0.00163153)
(0.028481 -0.0233164 -0.00633629)
(0.0517806 -0.0161398 0.000799564)
(-0.00440768 0.0141548 -0.000345008)
(-0.00475351 0.00330627 -0.00110457)
(0.000272683 0.0205285 0.0013027)
(0.00329418 0.0213627 0.000390464)
(-0.00325935 0.00418904 -0.000412462)
(-0.00601585 0.0139954 -0.00475686)
(0.00894556 -0.0136646 -0.00479422)
(-0.0105753 0.00178313 -0.00470776)
(-0.00685171 0.00613964 -0.00480369)
(-0.00763163 0.0131216 0.0301709)
(-0.00621077 -0.00433377 0.0108431)
(-0.01201 0.00573897 -0.0466959)
(0.00272446 0.00029757 -0.0041293)
(-0.00161624 0.000551168 -0.00300841)
(-0.000475342 0.00627255 -0.00277542)
(-0.00622043 0.000324531 -0.00362447)
(-0.00930553 -0.00735528 -0.000530166)
(0.00330486 -0.00640178 -0.00182558)
(-0.00920052 -0.00362705 -5.09976e-05)
(-0.0197803 -0.0136466 -0.000323097)
(-0.00863378 -0.00977594 0.00261549)
(0.00305316 -0.00746624 0.00342835)
(-0.0110389 -0.019298 -0.00349719)
(-0.0118758 -0.0151841 -0.00306247)
(-0.0118477 -0.00531168 0.000232458)
(-0.0131101 -0.003878 0.000570005)
(0.0139705 -0.00584452 0.000673561)
(-0.00147585 0.00132336 -0.00230343)
(0.000928741 -0.00374438 -0.0034515)
(-0.00352397 -0.00396279 -0.00105744)
(-0.000170443 0.00254821 -0.00265023)
(-0.00785693 -0.00249436 -0.000494863)
(-0.000836084 -0.00131325 1.94525e-06)
(-0.00124276 -0.00475017 -0.00175092)
(-0.000467793 -0.000150463 0.00921142)
(0.00509319 -0.00596373 -0.00218766)
(-0.0027119 -0.0097383 -0.0143408)
(0.00401854 -0.00516429 0.00657578)
(-0.000829744 -0.00319266 8.16734e-05)
(0.00564145 -0.00326749 -0.00166592)
(0.00360607 -0.00230199 7.24818e-05)
(0.00629181 -0.00270664 -4.11258e-05)
(0.00546714 -0.00579395 0.000138652)
(0.00122046 -1.00596e-05 -1.46149e-05)
(0.000599718 0.000772531 -8.34394e-05)
(0.00127486 0.000847418 6.904e-06)
(0.00076965 0.000964436 3.40447e-06)
(0.000452079 0.000267282 9.75307e-06)
(0.00116689 0.000167449 -2.50029e-05)
(0.00079696 0.00026663 -9.47495e-06)
(0.00106202 0.00144904 7.19441e-05)
(0.00102124 0.000584924 -9.53841e-06)
(0.00129658 0.000808105 -1.69321e-05)
(0.000897651 0.000884911 -1.38564e-05)
(0.000830893 0.000526039 8.29172e-05)
(0.00113831 0.000983509 -2.77647e-05)
(0.000787826 0.000484174 7.53309e-05)
(0.00128491 -2.78042e-05 1.94133e-05)
(0.000502631 -7.16616e-05 3.78608e-05)
(0.000519061 -5.74337e-05 4.36497e-05)
(0.000686992 -8.57384e-05 7.86395e-05)
(0.000342837 -4.57604e-05 2.0557e-05)
(0.000845886 1.24738e-05 -8.91034e-07)
(0.000912748 2.27615e-05 -1.17624e-06)
(0.00122563 1.4931e-05 -1.02478e-06)
(0.000635645 -6.30343e-06 -4.79718e-06)
(0.000635879 5.19928e-06 -5.45636e-06)
(0.0010489 -2.99454e-05 -5.15874e-06)
(0.00105066 -2.55159e-06 -4.5067e-06)
(0.000839197 8.72832e-06 -2.52018e-07)