/*--------------------------------*- C++ -*----------------------------------*\
| =========                 |                                                 |
| \\      /  F ield         | OpenFOAM: The Open Source CFD Toolbox           |
|  \\    /   O peration     | Version:  5.0                                   |
|   \\  /    A nd           | Web:      www.OpenFOAM.org                      |
|    \\/     M anipulation  |                                                 |
\*---------------------------------------------------------------------------*/
FoamFile
{
    version     2.0;
    format      ascii;
    class       surfaceVectorField;
    location    "3.6";
    object      Uf_0;
}
// * * * * * * * * * * * * * * * * * * * * * * * * * * * * * * * * * * * * * //

dimensions      [0 1 -1 0 0 0 0];

internalField   nonuniform List<vector> 
25642
(
(0.00897424 0.00149646 3.52246e-05)
(0.0114125 0.00147391 -0.00046824)
(0.0104466 -0.000800781 -0.000264303)
(-0.00109736 0.00293317 0.000483535)
(0.00779248 0.000981095 -8.90613e-05)
(3.31737e-05 0.0042432 0.000957092)
(0.00992281 -0.00183487 0.000430676)
(0.0135734 3.61765e-05 -0.00146017)
(0.0162292 -0.00327376 0.000816125)
(0.0022535 -0.00153839 0.000345197)
(-0.00345793 0.00539447 0.000574414)
(0.00528371 0.00151982 0.000218234)
(-0.00779118 -0.00705088 0.000818903)
(-0.0131519 -0.0125276 0.000494151)
(-0.00607986 -0.00801982 0.000800973)
(0.0136018 -0.00356713 -0.000330429)
(0.00107324 -0.000720465 -0.00213486)
(0.0180899 -0.024171 0.00377633)
(0.00959935 -0.00517532 0.00164536)
(-0.00209733 0.00503694 -8.98776e-05)
(-0.007666 0.00498345 0.000538295)
(-0.0117626 0.00616611 -0.000874767)
(-0.00916015 -0.000199727 7.46223e-05)
(0.0137463 -0.00403614 0.00246082)
(0.0156034 -0.000343743 0.00132337)
(0.0229696 0.00870207 0.000685767)
(0.022133 0.00806148 0.000409052)
(-0.0156948 0.00439856 0.00121585)
(-0.00546939 0.00984095 -0.00012972)
(-0.0135726 0.0101154 0.000313002)
(-0.0281422 0.0180298 -0.000851708)
(0.000964597 0.000447481 -1.35022e-05)
(0.000360356 0.000159984 3.39764e-05)
(0.000429615 0.000349794 5.87215e-05)
(0.000297894 0.000155458 1.73423e-05)
(0.000805447 9.60831e-05 -3.59798e-07)
(0.000538263 5.43761e-05 6.03015e-09)
(0.00111628 0.000131021 -5.35224e-07)
(0.000545646 0.000136628 -4.51579e-06)
(0.000541178 9.22193e-05 -3.80696e-06)
(0.00086733 0.000251385 -5.26876e-06)
(0.000874366 0.000147487 -2.19952e-06)
(0.000538628 2.82701e-05 -3.00693e-06)
(0.000885082 6.62081e-05 6.98996e-07)
(0.000885793 2.32832e-05 -3.66286e-06)
(0.00081491 6.07839e-05 -1.00888e-07)
(0.000813013 6.62525e-05 -7.14752e-07)
(0.00106385 0.000102627 1.35363e-07)
(0.000824131 3.07217e-05 1.63589e-07)
(0.000805232 2.84035e-05 -6.85043e-08)
(0.00109294 4.67001e-05 2.24362e-07)
(0.000826228 1.78916e-05 9.11788e-08)
(0.000820088 1.87022e-05 1.46653e-07)
(0.00109825 2.77344e-05 1.88488e-07)
(0.000826954 1.02543e-05 4.91428e-08)
(0.000822779 1.07872e-05 5.75066e-08)
(0.00110028 1.54776e-05 1.87013e-07)
(0.000826735 6.19478e-06 5.26911e-08)
(0.000824686 6.51214e-06 4.47782e-08)
(0.001101 9.1168e-06 1.87537e-07)
(0.000825191 3.79389e-06 7.09404e-08)
(0.000824644 3.7076e-06 6.42176e-08)
(0.00109989 5.69093e-06 1.67553e-07)
(0.000823991 2.24461e-06 1.49995e-07)
(0.000823878 2.28685e-06 5.80908e-08)
(0.00109808 3.36289e-06 2.1247e-07)
(0.000822747 1.31338e-06 1.44878e-07)
(0.000822958 7.66779e-07 1.24305e-07)
(0.00109655 1.97753e-06 2.31231e-07)
(0.000821348 7.47945e-07 4.37718e-08)
(0.000821785 8.02929e-07 5.1548e-08)
(0.0010948 1.13499e-06 1.8338e-07)
(0.00081993 2.70886e-07 3.23886e-08)
(0.000820375 4.44624e-07 5.26386e-08)
(0.001093 6.42389e-07 1.73628e-07)
(0.000818134 -4.0582e-08 1.18472e-07)
(0.000818949 1.49513e-06 5.88127e-08)
(0.00109082 -7.70891e-09 1.2684e-07)
(0.000816381 -2.53614e-07 1.36304e-07)
(0.000817405 1.53599e-08 1.17649e-07)
(0.00108837 -1.39787e-07 1.80877e-07)
(0.000815852 -2.67136e-07 7.13903e-08)
(0.000816107 3.47995e-07 7.6919e-08)
(0.00108702 -5.19834e-07 1.60781e-07)
(0.000813998 -1.7084e-07 5.2094e-08)
(0.000814728 1.5271e-07 6.99911e-08)
(0.00108538 -1.07946e-07 1.96672e-07)
(0.000812428 -1.56561e-07 3.65935e-08)
(0.000813128 1.50039e-07 4.30952e-08)
(0.001083 -2.52545e-07 1.65314e-07)
(0.000810882 -2.11443e-08 1.73866e-08)
(0.000811785 -1.46699e-07 5.22514e-08)
(0.00108101 -8.90584e-08 1.81333e-07)
(0.000809468 1.25517e-07 3.31334e-08)
(0.000810326 8.95607e-08 2.36375e-08)
(0.00107905 9.42168e-08 1.71565e-07)
(0.000807979 2.57747e-07 6.39161e-08)
(0.000808819 -1.08749e-07 6.71914e-08)
(0.00107705 3.14021e-07 1.99347e-07)
(0.000806941 1.91677e-07 4.99757e-08)
(0.0008073 -5.23082e-07 4.66682e-08)
(0.00107532 4.24024e-07 1.60548e-07)
(0.000805516 7.33512e-08 3.79116e-08)
(0.000805941 -4.54846e-08 4.83121e-08)
(0.00107389 1.01985e-07 1.7838e-07)
(0.000803075 -9.22524e-08 9.88593e-08)
(0.000804171 1.49744e-06 5.14137e-08)
(0.00107115 1.00369e-07 1.96432e-07)
(0.000801806 -4.82245e-07 5.62608e-08)
(0.000802305 -4.25505e-07 1.17862e-07)
(0.00106856 -3.64491e-07 1.70879e-07)
(0.000800476 -6.48323e-07 -2.08146e-08)
(0.000801108 1.85691e-06 3.69473e-08)
(0.001067 -9.57388e-07 -2.47434e-08)
(0.000798794 -5.37371e-07 4.61535e-08)
(0.000799785 9.37491e-07 3.39145e-08)
(0.00106482 -7.94245e-07 9.21333e-08)
(0.000797871 -3.50334e-07 6.59691e-08)
(0.000798492 2.35584e-07 1.33002e-07)
(0.00106305 -6.32599e-07 1.62052e-07)
(0.000796689 -6.98207e-08 7.75887e-08)
(0.000797457 8.47974e-08 4.85992e-08)
(0.00106184 -2.53471e-07 1.16933e-07)
(0.000795115 1.44509e-07 7.93986e-08)
(0.000795989 1.0304e-07 7.18036e-08)
(0.00106001 1.28437e-07 1.7714e-07)
(0.000793354 1.45448e-08 9.94303e-08)
(0.000794165 3.58431e-08 4.11557e-08)
(0.0010577 3.16278e-07 2.18579e-07)
(0.000791652 -4.97201e-08 7.21305e-08)
(0.000792547 1.41295e-07 9.40071e-08)
(0.00105532 -1.88266e-07 1.72247e-07)
(0.000790311 2.15659e-07 -2.20836e-08)
(0.000791137 8.70806e-08 3.24917e-08)
(0.00105319 1.50843e-07 1.63919e-07)
(0.000788783 3.77745e-07 4.96245e-09)
(0.000789665 2.40533e-07 -1.4019e-08)
(0.00105139 5.08178e-07 1.88193e-07)
(0.000787936 2.84361e-07 4.48775e-08)
(0.000788338 -9.25878e-07 1.62169e-07)
(0.00104993 5.55747e-07 1.92721e-07)
(0.000786351 1.40961e-07 5.15231e-08)
(0.000786965 2.35046e-07 3.95061e-08)
(0.00104819 2.0715e-07 1.76121e-07)
(0.000785013 -1.03918e-07 8.7014e-08)
(0.000785396 9.99326e-08 7.53048e-08)
(0.00104611 1.57321e-07 1.63302e-07)
(0.000783656 -2.72727e-07 1.66351e-07)
(0.000784146 9.17019e-07 8.46094e-08)
(0.00104455 -4.33875e-07 2.26093e-07)
(0.000782095 -2.14609e-07 1.33375e-07)
(0.000782848 -4.85466e-07 1.04624e-07)
(0.00104247 -2.88933e-07 2.02051e-07)
(0.0007806 -2.26582e-07 4.77343e-08)
(0.000781366 -3.38299e-09 4.57138e-08)
(0.00104039 -2.87325e-07 1.72244e-07)
(0.000779243 -2.65327e-07 6.81203e-08)
(0.000779928 -1.58657e-08 5.85956e-08)
(0.0010385 -3.26428e-07 1.66149e-07)
(0.000777874 -3.99301e-07 1.15782e-07)
(0.000778537 -1.51336e-07 7.13759e-08)
(0.00103661 -3.6232e-07 1.84207e-07)
(0.000776471 -4.10057e-07 6.6601e-08)
(0.000777207 -3.91417e-07 1.02922e-07)
(0.00103497 -6.3993e-07 1.70602e-07)
(0.000774634 -2.68418e-07 2.16568e-08)
(0.000775543 1.26383e-06 3.16329e-08)
(0.00103267 -4.19556e-07 8.23956e-08)
(0.000774134 -4.90431e-07 4.74276e-08)
(0.00103028 -3.09372e-07 2.63508e-07)
(0.012356 -0.00252959 0.000144388)
(0.00435655 -0.00112738 1.18529e-05)
(0.0119457 0.000232853 -0.000817642)
(-0.00665553 -0.00565435 0.00126971)
(0.0214462 0.00470739 0.00187683)
(-0.0208162 -0.0161078 0.00040208)
(0.00177846 0.00122562 -0.00195063)
(-0.0167402 -0.0274168 0.00450596)
(-0.000154924 -0.0112316 -0.000481016)
(0.00254054 -0.0111759 0.00122979)
(-0.0427332 -0.00329523 -0.00901416)
(-0.0302991 -0.0250606 0.00168655)
(-0.0394247 -0.0211832 0.00528866)
(-0.00417332 -0.0276856 -0.0037425)
(0.00332047 -0.0287029 -0.000880356)
(-0.0243398 -0.00111264 -0.00110394)
(0.00661102 0.00347821 -0.00169319)
(-0.0014835 -0.00134805 -0.0045916)
(0.00664711 0.00120366 -0.00424806)
(0.0239299 -0.00835425 8.1228e-05)
(0.016343 -0.00322004 -0.000356567)
(0.0599882 -0.00225077 -0.000325394)
(0.0164039 -0.00306325 0.000495008)
(-0.0056841 -0.00984959 0.000666431)
(0.0219224 -0.0270256 0.00117591)
(0.0240376 0.00124771 -0.00259193)
(0.0392659 -0.00976497 -0.0101328)
(-0.00397749 -0.0143635 0.000480552)
(0.00401766 -0.00784698 -0.000463136)
(-0.0166971 0.00796198 -2.2289e-05)
(-0.00862057 -0.00835878 -0.00226795)
(-0.00510433 -0.00683019 -0.000200377)
(0.0068782 0.000534567 7.93537e-05)
(0.00543567 -0.00447706 0.000292089)
(0.0039075 -0.000422437 0.000163345)
(0.00199561 -0.00450559 -3.53881e-05)
(0.00732088 0.00120719 0.000468204)
(0.00167607 -0.0003726 7.79365e-05)
(0.000304809 -6.77286e-05 5.01236e-05)
(0.000440161 2.44917e-05 2.94267e-05)
(0.000448463 -4.2594e-05 0.000107272)
(0.000330023 -2.91614e-06 3.19755e-05)
(0.000401364 3.57741e-05 -4.90253e-07)
(0.000425595 2.01666e-05 -2.24504e-06)
(0.000397753 1.22168e-05 3.80253e-07)
(0.000647899 3.73981e-05 8.22296e-07)
(0.000788152 2.62511e-05 -6.82579e-07)
(0.000834816 8.18551e-06 -1.43234e-06)
(0.00110185 4.27461e-05 -8.73754e-07)
(0.000548825 1.99047e-05 -3.24404e-06)
(0.000555649 1.70919e-05 -4.70617e-06)
(0.000901448 1.6389e-05 -3.90012e-06)
(0.000916892 1.20782e-05 -5.99563e-06)
(0.000807035 1.33692e-05 -8.55108e-08)
(0.000789175 4.24454e-06 -4.7007e-07)
(0.00105132 1.60576e-05 8.19412e-08)
(0.000816509 9.18183e-06 1.1301e-07)
(0.000814856 4.4817e-06 1.7469e-07)
(0.00108556 1.25117e-05 2.10228e-07)
(0.000821059 5.61729e-06 5.31461e-08)
(0.000818323 3.12576e-06 4.53317e-08)
(0.00109086 7.51156e-06 1.81963e-07)
(0.000822937 3.37962e-06 5.62983e-08)
(0.000821889 2.13651e-06 5.9044e-08)
(0.00109539 4.68527e-06 1.85619e-07)
(0.000823285 1.98583e-06 5.137e-08)
(0.000822903 1.28563e-06 5.13979e-08)
(0.00109654 2.59867e-06 1.83108e-07)
(0.000822891 1.23253e-06 3.23786e-08)
(0.000822937 8.11865e-07 5.1958e-08)
(0.00109643 1.61763e-06 1.82085e-07)
(0.000822064 7.6341e-07 3.09984e-08)
(0.000822373 5.28732e-07 3.26066e-08)
(0.00109555 9.70505e-07 1.3475e-07)
(0.000820842 4.868e-07 6.04145e-08)
(0.000821441 4.00285e-07 5.23401e-08)
(0.0010942 6.08651e-07 1.80213e-07)
(0.000819289 3.86852e-07 7.90608e-08)
(0.000820251 -4.93457e-07 3.99588e-08)
(0.00109228 3.78061e-07 2.45949e-07)
(0.000818449 3.24346e-07 5.79699e-08)
(0.000818872 -1.73952e-07 9.76439e-08)
(0.00109062 4.29252e-07 2.35524e-07)
(0.000816784 3.67255e-07 5.82764e-08)
(0.000817459 9.84124e-08 3.46649e-08)
(0.00108897 2.96227e-07 1.86371e-07)
(0.000815286 3.22995e-07 7.55221e-08)
(0.000816051 4.70725e-07 5.7845e-08)
(0.00108688 5.91085e-07 1.69163e-07)
(0.000813698 2.79755e-07 6.10009e-08)
(0.000814673 2.17532e-07 5.54153e-08)
(0.00108478 2.12404e-07 1.81063e-07)
(0.000812559 3.2882e-07 5.87502e-08)
(0.000813189 -1.26391e-06 4.24311e-08)
(0.00108289 5.23849e-07 2.45164e-07)
(0.000811176 2.01158e-07 5.85114e-08)
(0.000811624 5.18284e-07 6.79559e-08)
(0.00108133 3.82976e-07 1.22079e-07)
(0.000809685 8.15916e-08 5.76816e-08)
(0.000810175 1.7006e-09 5.27247e-08)
(0.00107941 2.01791e-07 1.84818e-07)
(0.000808172 2.93341e-08 4.99499e-08)
(0.000808753 -3.10486e-10 4.50839e-08)
(0.00107732 4.6905e-08 1.73289e-07)
(0.000806221 -9.61227e-08 4.5004e-08)
(0.000807143 -1.46092e-07 4.39033e-08)
(0.00107498 4.67148e-08 1.93008e-07)
(0.000804836 -5.31748e-07 6.18132e-08)
(0.000805398 -2.05343e-07 5.40061e-08)
(0.00107281 -2.97278e-07 1.81101e-07)
(0.000803207 -6.92391e-07 7.03958e-08)
(0.000803972 1.42216e-06 1.55259e-08)
(0.00107082 -1.12809e-06 1.96712e-07)
(0.000801475 -4.96973e-07 9.85743e-08)
(0.000802552 -5.46841e-08 7.26968e-08)
(0.00106842 -7.31908e-07 1.74448e-07)
(0.000800568 -3.68439e-07 9.16774e-08)
(0.000801271 -4.46802e-08 1.11912e-07)
(0.00106677 -5.95732e-07 2.62528e-07)
(0.000799356 8.8735e-09 1.20732e-07)
(0.000800257 -1.40914e-07 5.86452e-08)
(0.00106538 -3.79013e-07 2.31351e-07)
(0.000798093 3.65931e-07 1.15659e-07)
(0.000798938 5.26162e-07 2.41004e-07)
(0.00106368 4.53212e-07 1.38631e-07)
(0.000796932 1.82742e-07 4.28069e-08)
(0.000797227 7.11442e-07 8.80379e-08)
(0.00106214 6.10105e-07 1.05798e-07)
(0.000795027 -1.40064e-07 3.35702e-08)
(0.000795585 6.92157e-07 6.88002e-08)
(0.00106005 -4.29224e-08 1.74489e-07)
(0.000793248 -1.39601e-07 3.57161e-08)
(0.000794166 7.53259e-07 4.4333e-08)
(0.00105749 -2.55558e-07 1.54011e-07)
(0.000792045 2.48833e-08 5.43875e-08)
(0.000792752 -2.6688e-07 8.78896e-08)
(0.00105551 -5.19006e-08 1.83083e-07)
(0.000790532 2.13262e-07 4.05708e-08)
(0.000791371 -2.89053e-08 5.2534e-08)
(0.00105385 1.87437e-07 1.89916e-07)
(0.000789075 3.97279e-07 1.43133e-07)
(0.000789893 3.72076e-07 3.20233e-08)
(0.00105175 4.80753e-07 1.67107e-07)
(0.000787515 2.81925e-07 1.56836e-07)
(0.000788192 -8.73576e-07 1.53982e-07)
(0.00104963 6.46299e-07 1.82048e-07)
(0.000785983 9.61086e-09 6.32768e-08)
(0.000786624 3.8754e-07 3.78921e-08)
(0.00104764 1.24857e-07 1.72386e-07)
(0.000784441 -1.70101e-07 7.28973e-08)
(0.000785172 6.05928e-07 6.85483e-08)
(0.00104554 -9.04493e-08 1.47681e-07)
(0.000783414 -3.37686e-07 2.28762e-08)
(0.000783938 1.32128e-07 1.61272e-07)
(0.00104378 -3.57995e-07 1.94467e-07)
(0.000782107 -2.66971e-07 1.69806e-08)
(0.000782938 -1.53972e-07 3.83652e-08)
(0.00104239 -5.58961e-07 1.39111e-07)
(0.000780699 -1.37722e-07 5.65711e-08)
(0.000781529 -6.35785e-08 6.44558e-08)
(0.00104051 -1.8792e-07 1.76491e-07)
(0.000779189 -5.10158e-08 6.18473e-08)
(0.000780037 4.61106e-08 5.62813e-08)
(0.00103856 -2.15154e-07 1.76867e-07)
(0.000777889 -5.39868e-08 5.85061e-08)
(0.000778534 3.45201e-07 6.86445e-08)
(0.00103672 7.7855e-08 1.2609e-07)
(0.000776402 -2.55553e-07 6.79754e-08)
(0.000776955 -3.77088e-07 6.39064e-08)
(0.0010348 -1.82654e-07 1.78232e-07)
(0.000774801 -3.01296e-07 5.73989e-08)
(0.000775489 4.24856e-07 7.32263e-08)
(0.00103265 -4.66729e-07 2.50937e-07)
(0.000774509 8.84654e-08 5.50822e-08)
(0.00103126 -3.20782e-07 8.46384e-08)
(0.000712007 0.000411775 -0.00499143)
(0.00714069 -0.000144477 -0.000329709)
(0.00833295 -0.00537159 -0.000348883)
(0.00193949 -0.00504369 0.000196552)
(-0.00497059 0.00132873 -0.00393222)
(-0.0239218 0.00530991 -0.00497163)
(0.0140883 -0.000834108 -0.00099771)
(-0.00426573 -4.19612e-05 -0.00132424)
(-0.00657145 0.0128719 -0.0030825)
(0.0266354 -0.00787691 0.000104699)
(0.00720086 0.0139536 -0.000389234)
(0.0118126 -0.00888461 -0.000131314)
(0.0146707 -0.0227669 0.0040954)
(0.0113181 -0.0287041 -0.00305578)
(-0.00438907 -0.0021454 0.000170019)
(-0.00936638 -0.00157899 0.000672684)
(-0.00641802 -0.00708598 0.000820584)
(-0.00315521 -0.0113403 0.00110134)
(-0.000188647 0.0050521 0.00177636)
(-0.0125275 0.00141458 0.000133795)
(0.00178982 0.00110439 -0.000942885)
(-0.00528247 -0.00368913 -1.4217e-06)
(0.0115447 0.000597407 0.000180651)
(-0.000994737 -0.000613481 -0.000416285)
(0.000527216 0.0092459 -0.0043611)
(0.0201171 0.000272164 0.00511967)
(0.0111766 -0.0212468 0.000171046)
(0.00413086 -0.0124897 -0.00139157)
(0.0116225 -0.00440821 -0.00337092)
(0.00248252 0.000695094 0.000186192)
(-0.000283854 0.00557876 -2.26732e-05)
(-0.00160603 -0.00122559 -0.000203261)
(-0.000881208 -0.00450591 8.11373e-05)
(0.00321641 -0.00772026 0.000217117)
(0.000408809 -0.0153163 0.000834677)
(0.000762976 -1.84192e-05 8.58257e-05)
(0.00113979 0.000438115 9.78486e-05)
(0.000865732 0.000207593 0.000121438)
(0.000728516 0.000585378 3.89409e-05)
(0.00048596 0.000153247 6.38753e-05)
(0.000272536 -9.16747e-06 -1.48704e-06)
(0.000443421 -1.47556e-05 -3.07224e-06)
(0.000422281 -2.63495e-05 1.0775e-07)
(0.000673139 -3.88803e-05 -1.15747e-06)
(0.000304094 -3.28253e-05 -3.27592e-07)
(0.000503641 -1.72723e-05 3.19203e-06)
(0.000586129 -7.74131e-05 3.75288e-06)
(0.000403702 -1.02307e-05 -4.09795e-07)
(0.000795003 -8.91215e-06 -1.22014e-06)
(0.000846637 -2.51268e-05 -1.73334e-06)
(0.00113075 -2.08966e-05 -9.33905e-07)
(0.000565917 -1.0902e-05 -3.55224e-06)
(0.000572839 -6.46966e-06 -5.17065e-06)
(0.000937469 -2.76029e-05 -4.31797e-06)
(0.000950292 -1.38084e-05 -6.36997e-06)
(0.000808487 -3.71015e-06 -2.1008e-07)
(0.000795788 -1.27109e-05 -3.46287e-07)
(0.00105533 -9.81418e-06 4.99655e-08)
(0.00081601 -1.5208e-06 1.07055e-07)
(0.000817635 -7.26034e-06 1.68478e-07)
(0.0010876 -4.69977e-06 2.06587e-07)
(0.000820226 -6.3068e-07 5.12252e-08)
(0.000819461 -4.06443e-06 4.08733e-08)
(0.00109051 -2.37883e-06 1.77659e-07)
(0.000822214 -2.76401e-07 5.41461e-08)
(0.000822347 -2.36616e-06 5.78506e-08)
(0.00109487 -1.24541e-06 1.84534e-07)
(0.000822783 -1.48079e-07 5.19858e-08)
(0.000823073 -1.41024e-06 5.21039e-08)
(0.00109606 -7.27609e-07 1.82814e-07)
(0.000822542 -9.56217e-08 5.21923e-08)
(0.000823009 -8.62089e-07 5.23286e-08)
(0.00109606 -4.49029e-07 1.82875e-07)
(0.000821842 -9.06452e-08 5.39419e-08)
(0.000822383 -5.60889e-07 5.22013e-08)
(0.00109529 -3.05698e-07 1.82653e-07)
(0.000820921 -1.21826e-07 3.18884e-08)
(0.000821404 -4.29259e-07 5.44963e-08)
(0.00109407 -2.62908e-07 1.83697e-07)
(0.000819851 -9.77414e-08 5.85234e-08)
(0.000820283 2.54864e-07 5.0279e-08)
(0.00109278 -2.89414e-07 8.76526e-08)
(0.000817888 -5.42719e-08 7.43591e-08)
(0.000818927 3.93753e-07 7.18099e-08)
(0.00109071 -1.59036e-07 1.77655e-07)
(0.00081672 -5.22747e-08 3.42261e-08)
(0.000817462 -3.05641e-07 3.58915e-08)
(0.00108858 -1.26753e-07 1.76892e-07)
(0.000815398 9.21038e-09 3.77389e-08)
(0.000816129 3.11142e-07 5.85319e-08)
(0.00108692 -9.15419e-08 1.73512e-07)
(0.000814267 1.33336e-07 3.68496e-08)
(0.000814828 -2.21369e-07 4.85048e-08)
(0.00108529 6.45775e-08 1.76521e-07)
(0.000812206 1.98777e-07 5.16286e-08)
(0.00081327 -5.133e-08 2.43281e-08)
(0.00108321 2.61397e-07 1.42683e-07)
(0.000810572 1.37162e-07 6.21741e-08)
(0.000811546 -2.47713e-08 7.13116e-08)
(0.00108061 2.72814e-07 2.28289e-07)
(0.00080925 2.76691e-08 4.01295e-08)
(0.000810038 -1.64719e-07 3.62101e-08)
(0.00107863 8.83079e-08 1.75406e-07)
(0.000807845 -1.0603e-07 3.90377e-08)
(0.000808586 -1.24843e-07 3.12231e-08)
(0.00107685 -2.18103e-08 1.80145e-07)
(0.000806288 -1.33897e-07 5.29022e-08)
(0.000807109 -6.2267e-09 5.45545e-08)
(0.00107489 -2.21682e-07 1.74977e-07)
(0.000804396 -5.79742e-08 7.73095e-09)
(0.000805493 -6.94549e-08 7.10656e-08)
(0.00107242 -7.7792e-08 2.04744e-07)
(0.000803454 1.92436e-07 1.78089e-08)
(0.000804284 -7.57229e-07 2.33361e-08)
(0.00107061 -3.54611e-08 2.84434e-07)
(0.000802122 5.7339e-07 8.60225e-08)
(0.000803026 -1.44699e-06 4.93321e-08)
(0.00106924 5.81885e-07 2.63725e-07)
(0.000801066 6.93223e-07 7.88969e-08)
(0.000801418 -9.53793e-07 5.43627e-08)
(0.00106744 9.73896e-07 2.05491e-07)
(0.000799869 5.34748e-07 1.7886e-07)
(0.000800056 -1.98835e-06 1.929e-09)
(0.00106613 8.87269e-07 2.84628e-07)
(0.000798192 3.37473e-07 2.13431e-07)
(0.000798689 4.1511e-07 1.70017e-07)
(0.00106429 5.49361e-07 2.04034e-07)
(0.000795752 1.0159e-07 1.14037e-07)
(0.000796931 1.12971e-07 9.32341e-08)
(0.00106121 3.61108e-07 3.06518e-07)
(0.000794736 -8.42753e-08 7.95706e-08)
(0.000795352 1.61556e-07 6.87877e-08)
(0.00105893 -7.50963e-08 1.75016e-07)
(0.000793655 -4.47767e-08 9.6493e-08)
(0.000794215 8.49222e-08 5.6835e-08)
(0.00105768 -1.32902e-07 1.90664e-07)
(0.00079209 -1.46963e-08 8.60472e-08)
(0.00079279 1.47866e-07 9.14015e-08)
(0.00105587 2.70628e-08 1.56611e-07)
(0.000790696 -2.33032e-08 4.3993e-08)
(0.00079136 8.61761e-08 5.02129e-08)
(0.00105385 -5.02048e-08 1.62678e-07)
(0.000789164 -4.02497e-08 4.2834e-08)
(0.000789872 5.70318e-07 2.68124e-08)
(0.00105196 -2.156e-08 1.6901e-07)
(0.000787124 -7.03298e-08 3.50739e-08)
(0.000788154 -4.38871e-07 3.43923e-08)
(0.00104948 -1.06402e-07 1.97764e-07)
(0.000785923 -4.13389e-08 4.31542e-08)
(0.00078666 1.20882e-07 -1.39133e-08)
(0.00104727 -8.97146e-08 1.72713e-07)
(0.000784477 1.23932e-07 1.56895e-07)
(0.000785377 3.40634e-07 5.92658e-08)
(0.00104551 -1.70112e-08 1.94735e-07)
(0.000783538 2.72678e-07 1.76799e-07)
(0.000784123 5.94859e-07 1.71584e-07)
(0.00104397 3.9138e-07 9.63584e-08)
(0.000782465 2.52839e-07 8.58324e-08)
(0.000782911 -1.62385e-06 3.15849e-08)
(0.00104269 4.16455e-07 2.48402e-07)
(0.000780845 2.25717e-07 6.41685e-08)
(0.000781494 -4.48879e-08 6.1464e-09)
(0.00104083 3.60661e-07 1.89933e-07)
(0.000779351 2.73408e-07 6.30747e-08)
(0.000780095 -5.34472e-08 4.8166e-08)
(0.00103884 3.42147e-07 1.8729e-07)
(0.000777606 2.39165e-07 7.40463e-08)
(0.00077849 2.15148e-07 7.66122e-08)
(0.00103665 4.4203e-07 2.12294e-07)
(0.000776035 1.19166e-07 6.91545e-08)
(0.000776804 -4.00217e-08 5.54246e-08)
(0.00103429 2.36976e-07 1.6222e-07)
(0.000774994 7.96477e-08 7.09152e-08)
(0.000775438 -2.06709e-07 5.27924e-08)
(0.0010325 1.20794e-07 1.84621e-07)
(0.000774409 1.36392e-07 6.58057e-08)
(0.00103126 1.04084e-07 1.60698e-07)
(-0.00597609 -0.00551588 0.000126767)
(-0.00829945 -0.010197 0.0004253)
(-0.00127944 -0.00065886 0.00132942)
(0.00215043 0.00169342 3.98459e-05)
(0.0105035 -0.00145047 -0.00249002)
(0.0112146 0.00161339 -0.00092135)
(-0.0124229 -0.0177564 0.000491235)
(0.00459181 -0.0141611 -3.37974e-05)
(0.0166339 0.000133449 -0.000483439)
(-0.0148509 -0.0195007 0.00597566)
(-0.00625683 -0.0132368 -0.00965116)
(0.028097 -0.0175049 -0.00299731)
(0.000533171 -0.0012466 0.000268764)
(0.0200593 -0.00990686 -3.83716e-05)
(0.0121669 -0.00310785 0.000890243)
(0.00438173 0.00158117 -0.000261791)
(0.00646845 -0.00143415 0.000987609)
(-0.00479711 -0.000908102 1.96561e-05)
(-0.00544844 -0.00879772 0.000531199)
(-0.00341669 -0.00646159 -0.000310907)
(-0.0154777 -0.00476921 9.40434e-05)
(0.00190638 0.00488416 -0.000385614)
(-0.00556581 0.0164975 -0.000892432)
(0.00275926 0.0139142 -0.000139857)
(0.000334563 0.00842073 -0.00153321)
(-0.000104811 0.00276752 -0.000570152)
(0.0037561 0.00915091 -0.00138964)
(0.00870857 0.00595663 -0.00142585)
(0.00843487 -0.00600764 -0.00215669)
(-0.0175738 0.00936925 -0.00802545)
(-0.000256516 -0.00106959 -0.000499063)
(-0.00229814 -0.00395091 0.00260544)
(-0.00744968 0.00452187 0.00440994)
(0.00180971 0.00502996 0.000221584)
(-0.000503568 0.0053098 0.000137941)
(-0.000371675 0.00214269 2.91195e-05)
(-0.00231935 -0.000525889 0.000115598)
(-0.00257683 0.00252646 0.00036295)
(0.000391774 0.00118479 4.30102e-06)
(0.000663014 0.000843544 1.50462e-05)
(-4.23383e-05 0.000641914 9.4261e-06)
(0.000719783 0.00129839 -9.88891e-07)
(0.000565101 0.000507733 3.36115e-05)
(0.000346236 -9.70519e-05 2.46139e-05)
(0.000346288 -1.82075e-05 3.14833e-06)
(0.000329473 -1.6008e-05 6.59953e-06)
(0.000506806 -2.74187e-05 9.30125e-06)
(0.000234514 -1.55949e-05 1.7397e-07)
(0.000806008 -2.80236e-05 -8.59938e-07)
(0.000877861 -3.94061e-05 -1.43522e-06)
(0.00113685 -4.79588e-05 -1.0732e-06)
(0.000586403 -2.02582e-05 -4.13751e-06)
(0.000579483 -3.99854e-05 -5.00568e-06)
(0.000989773 -3.34233e-05 -4.85014e-06)
(0.000969334 -7.79919e-05 -5.64635e-06)
(0.000815922 -1.64822e-05 3.21019e-08)
(0.000810403 -2.56491e-05 -3.72711e-07)
(0.00107189 -2.8497e-05 8.10336e-08)
(0.000820171 -9.63409e-06 1.02338e-07)
(0.000826258 -1.4973e-05 1.6893e-07)
(0.00109498 -1.66104e-05 2.10365e-07)
(0.000822646 -5.73491e-06 4.74932e-08)
(0.000824372 -9.12641e-06 1.20891e-08)
(0.00109525 -9.85802e-06 1.80413e-07)
(0.00082354 -3.45583e-06 5.58102e-08)
(0.000825218 -5.52285e-06 1.26084e-07)
(0.0010975 -5.94828e-06 1.85919e-07)
(0.000823557 -2.10533e-06 5.24466e-08)
(0.000824774 -3.42178e-06 5.08959e-08)
(0.00109757 -3.60227e-06 1.83464e-07)
(0.000823004 -1.2961e-06 5.23377e-08)
(0.000824028 -2.14767e-06 5.71129e-08)
(0.00109697 -2.20841e-06 1.8313e-07)
(0.000822044 -8.12709e-07 5.2755e-08)
(0.000822992 -1.33415e-06 5.272e-08)
(0.00109579 -1.3563e-06 1.83177e-07)
(0.000820797 -5.58704e-07 7.28882e-08)
(0.000821724 -8.7762e-07 5.08815e-08)
(0.00109423 -8.69482e-07 1.85358e-07)
(0.000819509 -5.39602e-07 6.35586e-08)
(0.000820309 -5.94548e-07 6.91891e-08)
(0.00109241 -6.31739e-07 2.16547e-07)
(0.00081842 -6.01105e-07 3.33538e-08)
(0.000818852 -1.85901e-07 4.46999e-08)
(0.00109083 -7.8197e-07 1.81401e-07)
(0.000816848 -4.55064e-07 6.01901e-08)
(0.000817647 -3.05382e-07 2.18541e-08)
(0.00108906 -7.85102e-07 1.83819e-07)
(0.000815563 -2.80389e-07 6.9301e-08)
(0.000816348 -2.26618e-07 7.76717e-08)
(0.00108712 -4.08971e-07 1.9659e-07)
(0.000813976 -3.14607e-07 3.59911e-08)
(0.000814787 -1.27106e-07 3.92537e-08)
(0.00108522 -3.41756e-07 1.7912e-07)
(0.000812503 -2.79035e-07 4.39961e-08)
(0.000813315 4.84926e-07 4.8542e-08)
(0.00108315 -4.94322e-07 1.38613e-07)
(0.000811026 -6.43618e-08 4.53588e-08)
(0.000811815 -9.02088e-08 8.01881e-08)
(0.00108111 -2.52937e-07 1.81413e-07)
(0.000809348 1.23036e-07 2.73053e-08)
(0.000810272 1.35361e-08 4.49974e-08)
(0.00107904 5.3722e-08 1.82388e-07)
(0.000807849 2.25797e-07 4.67325e-08)
(0.000808714 -5.64414e-08 4.71747e-08)
(0.00107693 2.46452e-07 1.74798e-07)
(0.000806394 2.97373e-07 7.27127e-08)
(0.000807196 -6.15917e-08 6.53658e-08)
(0.00107491 3.53691e-07 1.79591e-07)
(0.00080514 5.95828e-07 8.66858e-08)
(0.000805864 -5.42179e-07 5.69044e-08)
(0.00107304 4.88823e-07 1.91454e-07)
(0.000804113 7.88488e-07 5.48512e-08)
(0.000804522 -2.19878e-06 4.6575e-08)
(0.00107164 1.19057e-06 2.39967e-07)
(0.000802184 7.37573e-07 1.76707e-08)
(0.000802959 2.78892e-07 1.91021e-08)
(0.00106967 9.98514e-07 9.63386e-08)
(0.000800468 7.39049e-07 -2.25887e-08)
(0.000801415 -3.03373e-07 3.75826e-08)
(0.00106715 1.02697e-06 1.53597e-07)
(0.000798797 4.6409e-07 -6.96709e-09)
(0.000799709 2.09233e-07 -1.27071e-08)
(0.00106484 1.0006e-06 3.98283e-08)
(0.000797661 7.97069e-08 4.98436e-08)
(0.000798207 -7.05493e-08 2.56409e-07)
(0.00106302 2.97371e-07 1.82569e-07)
(0.000796243 1.05361e-07 4.79923e-08)
(0.000796962 3.84396e-08 5.19514e-08)
(0.00106136 -5.22241e-08 1.78369e-07)
(0.000794891 2.41724e-07 4.60558e-08)
(0.000795522 3.8911e-07 5.71401e-08)
(0.00105943 3.27792e-07 1.50976e-07)
(0.000793432 1.53064e-07 5.17328e-08)
(0.000794104 9.60139e-08 4.81995e-08)
(0.00105762 2.846e-07 1.75939e-07)
(0.000791957 3.17788e-08 5.558e-08)
(0.000792638 9.12788e-08 5.12729e-08)
(0.00105562 8.28895e-08 1.82172e-07)
(0.000790656 -1.6513e-07 3.30396e-08)
(0.000791115 -1.41834e-07 5.71751e-08)
(0.00105378 -3.33576e-08 1.78993e-07)
(0.000788861 -2.89409e-07 1.83684e-08)
(0.000789718 2.04105e-06 5.75381e-08)
(0.00105168 -4.30517e-07 1.0127e-07)
(0.000787591 -9.19397e-08 -1.458e-08)
(0.000788402 -2.04783e-07 5.52717e-08)
(0.00104954 -3.74601e-07 1.42957e-07)
(0.000786152 1.58354e-07 2.17574e-09)
(0.000786973 -7.9027e-08 -2.8009e-09)
(0.00104775 8.9256e-08 1.89374e-07)
(0.000784957 2.83741e-07 7.39201e-08)
(0.000785533 -1.24763e-07 9.10195e-08)
(0.00104614 3.40124e-07 1.86535e-07)
(0.000783523 3.36445e-07 2.64125e-08)
(0.000784186 1.53348e-07 7.46524e-08)
(0.00104432 4.88586e-07 2.06496e-07)
(0.000781981 1.78043e-07 -4.80934e-08)
(0.000782711 2.22558e-07 2.23914e-08)
(0.00104235 4.91716e-07 5.04993e-08)
(0.000780706 1.42127e-08 -9.86893e-09)
(0.000781288 8.55984e-08 -1.27815e-08)
(0.00104041 4.28135e-08 1.50649e-07)
(0.000779413 -1.69895e-08 6.16948e-08)
(0.000780056 -1.67004e-08 4.44526e-08)
(0.00103865 3.32615e-08 1.58965e-07)
(0.00077746 1.81815e-08 5.7997e-08)
(0.000778533 -4.42357e-07 2.25793e-08)
(0.00103659 -6.71661e-08 2.69722e-07)
(0.000776277 1.83589e-07 3.90633e-08)
(0.00077701 -2.97583e-07 2.41832e-09)
(0.00103439 1.17329e-07 1.70181e-07)
(0.000774697 2.5589e-07 4.76789e-08)
(0.000775525 5.95677e-08 1.00664e-07)
(0.00103248 3.65041e-07 1.68281e-07)
(0.000774091 3.62754e-07 7.2142e-08)
(0.00103098 3.11289e-07 1.26747e-07)
(-0.00243881 -0.00694023 0.000399964)
(-0.000434173 -0.0142128 -4.79198e-05)
(0.00746408 -0.0142851 0.00100229)
(0.043941 -0.0150757 -0.0025289)
(0.0288064 -0.00975532 -0.00204269)
(0.0206445 -0.0276025 -0.00534424)
(0.045272 -0.030945 -0.000845811)
(-0.00150414 0.015295 0.000230163)
(-0.00551265 0.00532211 -0.000848187)
(0.00121676 0.0210597 0.000899801)
(0.00489423 0.0204436 0.000299447)
(-0.00283334 0.00515681 -0.000453969)
(-0.00650139 0.0170926 -0.00441586)
(0.00835152 -0.016977 -0.00444372)
(-0.013711 0.000915158 -0.00376018)
(-0.0127181 0.00439443 0.017157)
(-0.00631314 0.0112657 -0.00389745)
(-0.00379097 -0.005759 0.0141532)
(-0.0172563 0.00670498 -0.0409736)
(0.00319272 -0.000155401 -0.00456252)
(0.00177915 -0.000483407 -0.00264342)
(0.000944219 0.00363138 -0.00234886)
(-0.00780493 -0.000123007 -0.00359979)
(-0.0102385 -0.00661479 -0.000550313)
(0.00306427 -0.0047722 -0.00118279)
(-0.00818578 -0.00248682 -0.000166815)
(-0.0193107 -0.0131225 -0.000418859)
(-0.00914434 -0.00888343 0.00374723)
(0.00286784 -0.00338654 0.000367548)
(-0.011361 -0.0168691 0.000295953)
(-0.00962047 -0.0115872 -0.0042545)
(-0.0111879 -0.0040599 0.000266158)
(-0.0117608 -0.00270693 0.000269476)
(0.0187761 -0.00404188 0.000695017)
(-0.000340219 0.000169477 -0.00239684)
(0.000617776 -0.00417685 -0.00330126)
(-0.00322367 -0.0038939 -0.00116009)
(0.000429768 0.00292819 -0.00300967)
(-0.00752401 -0.00259031 -0.000506051)
(-0.00173977 -0.00161741 4.68215e-06)
(-0.00062098 -0.00458235 -0.00183801)
(0.000133486 0.00274129 0.00597074)
(0.00266771 -0.00896588 -0.00104023)
(-0.00390996 -0.0029038 -0.0128879)
(0.00413427 -0.00340752 0.00710239)
(-0.000760276 -0.00378531 0.000191834)
(0.00758618 -0.00364957 -0.00135611)
(0.003803 -0.00245961 0.000166099)
(0.00699356 -0.00268174 0.000108813)
(0.00567206 -0.00564682 0.000244143)
(0.00119873 -0.000225534 -1.4768e-05)
(0.000527537 0.000592294 -8.70283e-05)
(0.00127963 0.000680858 7.22808e-06)
(0.000745829 0.000789973 3.19775e-06)
(0.000436218 7.48644e-05 8.527e-06)
(0.00114846 -5.45057e-05 -2.71516e-05)
(0.000789245 6.55284e-05 -1.32468e-05)
(0.000974566 0.00126026 6.58865e-05)
(0.000959711 0.000416442 -9.83246e-06)
(0.00123046 0.000628982 -1.80845e-05)
(0.000898606 0.000725201 -1.22982e-05)
(0.000777509 0.000363621 8.18791e-05)
(0.00110268 0.000821057 -2.69218e-05)
(0.000781736 0.000340351 7.76903e-05)
(0.00126599 -6.00355e-05 1.88475e-05)
(0.000488388 -7.89241e-05 3.78831e-05)
(0.000507706 -6.67955e-05 4.34599e-05)
(0.000666847 -9.53729e-05 7.84362e-05)
(0.000328006 -5.12827e-05 2.06419e-05)
(0.000835044 -3.10708e-05 -9.48346e-07)
(0.000911128 -3.03123e-05 -1.29698e-06)
(0.00121374 -4.72917e-05 -9.93049e-07)
(0.000619613 -4.29402e-05 -4.9351e-06)
(0.000626846 -3.18704e-05 -5.50479e-06)