/*--------------------------------*- C++ -*----------------------------------*\
| =========                 |                                                 |
| \\      /  F ield         | OpenFOAM: The Open Source CFD Toolbox           |
|  \\    /   O peration     | Version:  5.0                                   |
|   \\  /    A nd           | Web:      www.OpenFOAM.org                      |
|    \\/     M anipulation  |                                                 |
\*---------------------------------------------------------------------------*/
FoamFile
{
    version     2.0;
    format      ascii;
    class       volScalarField;
    location    "2.5";
    object      alpha.water;
}
// * * * * * * * * * * * * * * * * * * * * * * * * * * * * * * * * * * * * * //

dimensions      [0 0 0 0 0 0 0];

internalField   nonuniform List<scalar> 
9851
(
0.99716
1.0444
0.96989
1.09934
0.999054
1.00092
-1.77504e-15
-5.39719e-22
-3.20305e-23
9.05651e-18
6.23724e-19
1.90502e-21
1.8421e-25
1.51625e-29
5.38741e-33
2.26649e-36
9.14177e-40
3.89782e-43
1.66295e-46
6.36058e-50
3.14354e-53
1.2803e-56
7.54158e-60
1.93399e-63
1.1444e-66
8.45972e-70
3.52623e-73
7.93026e-77
5.41927e-79
7.88376e-83
6.5653e-86
6.47623e-90
1.06147e-92
7.91848e-95
2.54593e-98
1.21204e-101
8.72611e-105
2.4993e-107
2.56285e-111
2.00689e-115
3.47076e-118
1.17926e-120
1.00237e-123
4.20345e-126
5.87839e-130
8.3479e-133
2.08857e-136
1.40776e-140
3.02346e-142
3.48997e-145
1.00262
1.00413
1.10042
1.01465
1.01706
0.995722
-1.03806e-16
-1.20371e-19
-2.31758e-24
8.23332e-19
5.5242e-20
1.95846e-22
4.50581e-26
4.20442e-30
1.28296e-33
5.18077e-37
2.17096e-40
9.18078e-44
3.92603e-47
1.56789e-50
6.64847e-54
2.77623e-57
1.47249e-60
7.31337e-64
3.10723e-67
2.04104e-70
7.99795e-74
2.06156e-77
1.85479e-80
9.80663e-84
6.24756e-87
1.53051e-89
1.57527e-93
2.33514e-96
8.53524e-100
6.04852e-103
4.24214e-106
3.07625e-110
1.0921e-111
8.74182e-115
1.23301e-118
1.58975e-121
1.32669e-125
2.81076e-129
6.33751e-132
1.69578e-134
7.57566e-138
1.64181e-141
5.52662e-145
1.41583e-145
0.998063
1.0345
1.00002
0.988107
1.03151
1.00739
0.563228
-5.68157e-18
5.44128e-18
1.64676e-16
2.61851e-18
2.48113e-21
8.06339e-24
3.38357e-27
3.01551e-31
8.80681e-35
3.60037e-38
1.50196e-41
6.26434e-45
2.59708e-48
1.07807e-51
4.45685e-55
1.84097e-58
7.58795e-62
3.12425e-65
1.35719e-68
5.49277e-72
2.15137e-75
9.77794e-79
5.25608e-82
1.52612e-85
5.99683e-89
2.9304e-91
1.42347e-94
2.43581e-98
1.13752e-101
5.82048e-105
9.19217e-109
7.86005e-111
7.43775e-114
1.55042e-117
5.89652e-121
9.27633e-124
1.21911e-127
1.5427e-130
1.19387e-133
2.56036e-136
1.36966e-139
3.57163e-143
2.73981e-145
1.08043
1.04067
1.02557
1.01132
1.00778
0.999539
1
-5.06056e-16
-2.00528e-18
-6.4579e-24
4.24127e-18
3.65404e-20
1.22848e-23
3.36905e-27
6.54647e-31
2.10894e-34
8.69106e-38
3.76606e-41
1.58678e-44
6.68667e-48
2.87004e-51
1.20071e-54
6.87856e-58
2.79842e-61
1.69329e-64
4.52881e-68
1.66768e-71
3.00249e-74
8.4164e-78
1.55643e-81
5.40228e-84
7.57604e-87
9.46754e-91
3.18909e-94
9.84665e-97
1.62935e-100
7.00267e-104
7.61076e-107
5.2287e-109
2.27841e-112
2.84353e-116
1.14614e-118
2.05696e-122
2.30265e-125
2.51751e-128
8.72326e-132
2.63039e-135
8.61974e-139
6.11612e-142
1.7531e-144
0.942242
1.03783
1.03846
1.11821
1.05774
1.02889
1.00116
-1.11895e-17
-4.07269e-18
-1.31107e-21
2.19594e-17
7.55493e-19
6.07882e-22
1.91958e-26
3.96512e-30
1.57933e-33
6.30771e-37
2.60858e-40
1.07798e-43
4.66438e-47
1.84777e-50
8.86709e-54
3.09839e-57
1.36194e-60
5.70748e-64
6.78251e-67
1.85384e-70
1.28551e-73
3.02266e-76
5.84506e-80
8.76344e-83
6.60796e-87
3.63868e-89
4.63991e-93
4.43935e-97
6.79767e-100
4.33216e-102
1.19913e-105
5.51906e-110
6.94676e-112
6.52389e-116
5.49442e-120
1.87682e-123
2.43591e-125
6.7495e-128
1.98263e-131
1.76108e-133
7.47506e-137
8.76657e-140
1.85815e-143
1.03263
1.00026
1.04231
0.990666
1
0.999998
1.0014
-3.54313e-17
-2.11482e-18
-7.09078e-23
1.71042e-17
6.28695e-19
5.716e-22
1.86427e-26
3.50973e-30
1.37821e-33
5.64529e-37
2.71981e-40
1.01605e-43
6.15224e-47
1.76736e-50
6.98119e-54
2.85878e-57
2.19722e-60
4.99828e-64
5.63167e-66
8.93857e-70
9.79964e-74
2.57059e-76
1.30119e-78
7.43597e-82
3.5293e-85
2.15836e-89
1.26096e-92
2.65516e-95
2.98152e-99
3.1132e-102
3.86404e-105
2.15061e-109
1.82274e-112
1.73858e-114
7.30222e-117
3.02873e-120
2.78384e-124
1.02344e-127
1.22744e-130
7.66022e-135
2.38025e-138
3.0725e-141
5.0866e-145
0.999941
1.04172
0.914749
1.06017
0.854764
1.02678
1.00229
-1.09811e-15
-1.62444e-18
7.67209e-22
4.0346e-18
2.86942e-20
1.26905e-23
4.0173e-27
7.59708e-31
2.37099e-34
9.72425e-38
4.15141e-41
1.79497e-44
7.54079e-48
3.59104e-51
1.36322e-54
6.16036e-58
2.45746e-61
1.52855e-64
4.4278e-68
1.78383e-71
1.13301e-74
2.50714e-77
4.08672e-81
8.41512e-85
5.72457e-88
1.60744e-91
2.11678e-94
5.10661e-98
1.32909e-100
3.78095e-104
1.67688e-106
1.08655e-109
1.25986e-112
1.50548e-116
1.24897e-119
3.04676e-123
4.13897e-127
3.67009e-129
9.71098e-133
9.18869e-135
2.51682e-138
1.67246e-142
3.69462e-144
1.02602
1.09399
1.0616
1.01849
0.998328
1.00026
1
-1.03844e-17
7.03735e-16
1.66118e-16
2.688e-18
3.18929e-21
8.33877e-24
3.27481e-27
3.07946e-31
9.18323e-35
3.75896e-38
1.56841e-41
6.53945e-45
2.72954e-48
1.1279e-51
4.69974e-55
1.95326e-58
7.94231e-62
3.26322e-65
1.41094e-68
6.4281e-72
2.32302e-75
9.23828e-79
5.74927e-82
1.65636e-85
1.25228e-88
9.8328e-92
2.03417e-95
1.07216e-98
2.04614e-101
2.83159e-105
5.35645e-108
3.95227e-111
1.19346e-114
8.02087e-119
1.71003e-120
2.47441e-123
5.93691e-127
4.69039e-131
9.11208e-135
3.26678e-138
1.26085e-141
6.06332e-145
2.23856e-145
1.05842
1.11391
0.994929
0.986801
1.0653
1.00289
0.432808
-2.25195e-18
-1.26169e-21
9.41988e-19
6.94772e-20
1.86849e-22
3.30698e-26
3.66862e-30
1.17598e-33
4.80165e-37
2.0101e-40
8.42091e-44
3.54771e-47
1.47906e-50
6.08002e-54
2.55353e-57
1.05595e-60
4.43104e-64
4.20992e-67
9.46796e-71
3.36621e-74
1.49334e-77
5.95735e-81
3.33407e-84
3.27882e-86
1.49609e-89
1.30403e-93
3.04193e-97
2.19592e-99
6.02901e-103
5.47523e-106
4.56854e-110
9.98182e-114
8.35348e-116
1.73262e-118
2.90263e-121
5.11677e-125
4.89249e-129
1.49076e-132
6.24585e-136
6.86115e-138
1.7343e-140
2.03593e-143
2.63789e-145
1.07066
1.01264
1.00726
1.03312
1
0.978266
-4.27238e-15
-4.23551e-20
-5.8528e-22
7.77741e-18
7.26405e-19
4.03649e-21
8.11458e-25
4.73549e-29
1.48647e-32
6.11388e-36
2.49638e-39
1.03218e-42
4.24686e-46
1.8588e-49
7.16928e-53
2.94066e-56
1.17441e-59
4.73953e-63
2.59862e-66
8.01903e-70
3.35527e-73
1.70074e-76
6.1878e-79
1.91224e-82
2.20346e-86
1.19251e-88
1.05685e-91
5.06054e-95
3.02684e-99
3.66751e-102
1.04301e-104
2.01177e-108
1.16376e-110
1.7705e-114
2.67662e-118
4.05439e-122
7.03609e-124
2.11395e-127
3.24498e-130
3.19441e-133
1.63583e-136
7.19839e-140
2.58241e-143
2.75857e-145
1.00946
1.00406
1.00091
0.789224
1.0225
0.997805
5.92897e-08
2.27683e-14
3.36534e-17
1.59376e-17
1.99668e-18
3.71112e-20
5.72481e-23
7.7486e-27
2.05627e-30
1.48133e-33
1.05964e-36
7.34944e-40
5.07823e-43
3.50334e-46
2.41417e-49
1.6602e-52
1.13878e-55
7.79873e-59
5.32851e-62
3.63238e-65
2.47362e-68
1.6809e-71
1.139e-74
7.70372e-78
5.19741e-81
3.49809e-84
2.35167e-87
1.57766e-90
1.05688e-93
7.06679e-97
4.71184e-100
3.13314e-103
2.08057e-106
1.37986e-109
9.13209e-113
6.03285e-116
3.97707e-119
2.61576e-122
1.71785e-125
1.12502e-128
7.35473e-132
4.80239e-135
3.12839e-138
1.20954e-141
1.04787
0.939784
1.18605
0.984364
1.12878
0.992652
8.73996e-07
7.90187e-14
7.35448e-17
1.22702e-17
5.51842e-19
2.99237e-21
1.5958e-24
2.44216e-28
1.26842e-31
9.38238e-35
6.73852e-38
4.74227e-41
3.33202e-44
2.33389e-47
1.63372e-50
1.14043e-53
7.94276e-57
5.53133e-60
3.83781e-63
2.65571e-66
1.83562e-69
1.26519e-72
8.69938e-76
5.97085e-79
4.10752e-82
2.80677e-85
1.91052e-88
1.30146e-91
8.85352e-95
6.00653e-98
4.06921e-101
2.74574e-104
1.85168e-107
1.24522e-110
8.35761e-114
5.59611e-117
3.74285e-120
2.50271e-123
1.66465e-126
1.10668e-129
7.34055e-133
4.86116e-136
3.21203e-139
1.26198e-142
1.01824
1.02998
0.810786
1.04435
1.03492
1.00714
0.563029
2.52581e-13
1.40527e-15
1.40394e-15
6.69054e-17
9.13212e-20
5.19703e-24
1.65806e-27
1.16252e-30
8.24984e-34
5.83676e-37
4.10359e-40
2.87614e-43
2.01407e-46
1.40962e-49
9.8574e-53
6.88202e-56
4.80026e-59
3.33991e-62
2.32077e-65
1.61108e-68
1.11592e-71
7.71618e-75
5.33738e-78
3.68397e-81
2.53861e-84
1.74764e-87
1.20014e-90
8.21327e-94
5.61764e-97
3.83596e-100
2.61345e-103
1.77777e-106
1.2064e-109
8.16576e-113
5.51834e-116
3.72592e-119
2.51055e-122
1.68904e-125
1.13402e-128
7.59391e-132
5.07493e-135
3.38375e-138
1.33627e-141
1.08295
0.946095
1
1.00992
1.00951
0.995928
1.00034
4.50387e-10
1.28731e-15
2.69635e-17
2.55036e-17
9.80547e-19
1.37403e-21
1.26514e-25
3.54411e-29
2.57513e-32
1.84835e-35
1.28914e-38
8.96525e-42
6.23246e-45
4.32778e-48
2.9996e-51
2.07394e-54
1.43517e-57
9.88355e-61
6.80157e-64
4.67926e-67
3.21235e-70
2.20467e-73
1.50621e-76
1.02841e-79
7.01115e-83
4.76794e-86
3.23863e-89
2.19693e-92
1.48741e-95
1.00542e-98
6.78264e-102
4.56603e-105
3.0688e-108
2.0582e-111
1.38286e-114
9.24253e-118
6.16844e-121
4.10227e-124
2.728e-127
1.81049e-130
1.19965e-133
7.93189e-137
3.10776e-140
0.9803
1.01645
1.00079
0.967949
1.0409
1.02866
1.00173
3.11421e-08
2.39108e-14
2.78855e-16
2.5083e-16
1.7396e-17
6.15288e-20
8.21365e-24
1.147e-27
7.82804e-31
5.54569e-34
3.8017e-37
2.59598e-40
1.77046e-43
1.20659e-46
8.20792e-50
5.57053e-53
3.77687e-56
2.55536e-59
1.72496e-62
1.1638e-65
7.83528e-69
5.26263e-72
3.52942e-75
2.36312e-78
1.57889e-81
1.05374e-84
7.01577e-88
4.66266e-91
3.09561e-94
2.05098e-97
1.3558e-100
8.95033e-104
5.90138e-107
3.8842e-110
2.55321e-113
1.67482e-116
1.09636e-119
7.1677e-123
4.67763e-126
3.04654e-129
1.98173e-132
1.28671e-135
4.96001e-139
1.05582
1.06059
0.757034
0.680974
0.950434
0.991997
1.00213
7.33862e-08
2.72288e-14
4.94472e-16
4.62522e-16
3.27513e-17
1.159e-19
1.51279e-23
2.10949e-27
1.44005e-30
1.02016e-33
6.99386e-37
4.7763e-40
3.25715e-43
2.21781e-46
1.50779e-49
1.02304e-52
6.93035e-56
4.6849e-59
3.15999e-62
2.13097e-65
1.43417e-68
9.63027e-72
6.45679e-75
4.31696e-78
2.87975e-81
1.92058e-84
1.27849e-87
8.48897e-91
5.62937e-94
3.72568e-97
2.46115e-100
1.624e-103
1.06958e-106
7.03145e-110
4.61619e-113
3.02391e-116
1.97567e-119
1.28904e-122
8.39562e-126
5.45657e-129
3.54412e-132
2.29908e-135
8.85791e-139
1.01742
1.0307
0.986497
0.981519
1.03055
1.01998
1.00379
5.36265e-09
1.41814e-15
1.86341e-17
1.68718e-17
7.07959e-19
1.05185e-21
8.64226e-26
2.45055e-29
1.76668e-32
1.25299e-35
8.71869e-39
6.04258e-42
4.19696e-45
2.91894e-48
2.0316e-51
1.40237e-54
9.73119e-58
6.78785e-61
4.62977e-64
3.1891e-67
2.19581e-70
1.50982e-73
1.03817e-76
7.09435e-80
4.85313e-83
3.31804e-86
2.26306e-89
1.54589e-92
1.04811e-95
7.11028e-99
4.82597e-102
3.26769e-105
2.19937e-108
1.48193e-111
9.97676e-115
6.69811e-118
4.48727e-121
3.00052e-124
2.0028e-127
1.33995e-130
8.88356e-134
5.90541e-137
2.38497e-140
1.09159
1.09567
1.14927
0.996719
1.02031
1.00807
1.00022
2.5042e-11
1.65056e-15
1.66134e-15
9.70121e-17
1.89088e-19
1.22478e-23
2.81355e-27
2.00501e-30
1.41232e-33
9.81118e-37
6.79185e-40
4.6929e-43
3.24004e-46
2.23602e-49
1.54108e-52
1.06052e-55
7.29297e-59
5.00919e-62
3.43476e-65
2.35233e-68
1.60857e-71
1.09829e-74
7.49572e-78
5.1127e-81
3.48113e-84
2.36682e-87
1.6057e-90
1.08737e-93
7.35879e-97
4.97124e-100
3.3521e-103
2.25856e-106
1.51866e-109
1.01881e-112
6.82722e-116
4.56703e-119
3.04873e-122
2.03265e-125
1.35282e-128
8.97852e-132
5.95293e-135
3.94421e-138
1.54892e-141
1.06509
1.03848
1.01432
0.961768
1.01468
1.0053
0.435161
4.09414e-13
4.4362e-16
7.09386e-19
2.54679e-19
8.64191e-22
2.94341e-25
7.25946e-29
4.4291e-32
3.3057e-35
2.41591e-38
1.73288e-41
1.2388e-44
8.83911e-48
6.29417e-51
4.46974e-54
3.16698e-57
2.23806e-60
1.57968e-63
1.11066e-66
7.79223e-70
5.45773e-73
3.81053e-76
2.65645e-79
1.84696e-82
1.27978e-85
8.85242e-89
6.10786e-92
4.2082e-95
2.88873e-98
1.97974e-101
1.3547e-104
9.23903e-108
6.29097e-111
4.27339e-114
2.89474e-117
1.95747e-120
1.32007e-123
8.89203e-127
5.97191e-130
4.00193e-133
2.67938e-136
1.7902e-139
7.09258e-143
1.07322
1.05859
1.01587
1.02194
1.03536
0.992514
1.1891e-06
2.12007e-14
3.48451e-17
1.07135e-17
1.11908e-18
1.76482e-20
2.54358e-23
3.78536e-27
1.07397e-30
7.71895e-34
5.56267e-37
3.88199e-40
2.69731e-43
1.87129e-46
1.29611e-49
8.95483e-53
6.17194e-56
4.24809e-59
2.91727e-62
1.9982e-65
1.36655e-68
9.32726e-72
6.35195e-75
4.3178e-78
2.92791e-81
1.98015e-84
1.3361e-87
9.00076e-91
6.05032e-94
4.06147e-97
2.71986e-100
1.81688e-103
1.21124e-106
8.0632e-110
5.35662e-113
3.55192e-116
2.35033e-119
1.55156e-122
1.02229e-125
6.72156e-129
4.41027e-132
2.89106e-135
1.88987e-138
7.32849e-142
1.0883
1.00868
0.946404
1.05143
1.00104
0.995351
3.80073e-08
-2.72735e-22
-3.28964e-23
4.14574e-18
3.34692e-19
1.35926e-21
1.92816e-25
1.35381e-29
4.53943e-33
1.96721e-36
7.62728e-40
3.23659e-43
1.38587e-46
8.83412e-50
2.58336e-53
1.20194e-56
4.65748e-60
1.54153e-63
1.06783e-66
9.34702e-70
2.56175e-73
1.28191e-76
2.39015e-79
4.01843e-83
1.43353e-86
3.48131e-90
7.66221e-93
4.10335e-95
2.08141e-98
5.78175e-102
7.98668e-105
6.56977e-108
2.85461e-112
7.33144e-114
4.57767e-117
1.86763e-121
1.5855e-124
1.76703e-128
1.09689e-130
9.72425e-133
2.71614e-136
7.76245e-140
7.88226e-143
4.03287e-145
1.04322
0.916802
0.826724
0.965378
0.977203
0.999625
8.48843e-07
-1.22374e-19
-2.27322e-24
9.51903e-19
6.73518e-20
2.46139e-22
5.48391e-26
5.02649e-30
1.52707e-33
6.13606e-37
2.5658e-40
1.07897e-43
4.5692e-47
1.84507e-50
8.01773e-54
3.27392e-57
1.83423e-60
7.89489e-64
3.6766e-67
1.27888e-70
8.7454e-74
2.27577e-77
7.37402e-80
1.32972e-83
2.44086e-86
2.47802e-89
1.89837e-92
3.17854e-96
2.63663e-99
7.62033e-103
1.85741e-106
5.20686e-110
3.45443e-111
3.85701e-114
3.16126e-118
4.41361e-122
1.24413e-125
2.85973e-127
1.51169e-130
1.74177e-134
1.28218e-137
1.52035e-141
3.49239e-144
2.12367e-145
1.12106
1.14682
1.04769
1.00509
1.0299
1.00689
0.562604
9.39128e-14
5.52426e-18
1.63417e-16
2.70346e-18
2.77231e-21
9.65369e-24
4.21928e-27
3.67429e-31
1.05806e-34
4.32079e-38
1.80229e-41
7.51429e-45
3.11541e-48
1.29431e-51
5.34292e-55
2.2189e-58
9.25339e-62
3.861e-65
1.53759e-68
6.54955e-72
2.57988e-75
1.06585e-78
6.17948e-82
1.82237e-85
7.15324e-89
3.29126e-92
3.67423e-95
9.51874e-99
1.01141e-101
6.23068e-105
1.57381e-108
1.08707e-111
2.70852e-114
3.52849e-117
3.68362e-121
5.26805e-125
1.91466e-127
8.19092e-130
1.83387e-133
2.79773e-136
1.19027e-139
4.93303e-143
3.19793e-145
1.04707
1.05528
0.996412
0.713881
1.01219
0.997629
1.00022
2.18146e-10
-1.96371e-18
-6.41976e-24
4.39181e-18
3.73116e-20
1.22699e-23
3.3169e-27
6.49911e-31
2.09804e-34
8.65067e-38
3.70664e-41
1.57431e-44
6.67902e-48
2.83886e-51
1.18997e-54
5.17917e-58
2.75673e-61
9.44098e-65
4.10468e-68
1.64567e-71
5.01612e-74
2.54627e-77
2.38529e-81
4.7828e-84
2.46647e-87
4.95305e-91
1.40267e-94
1.40466e-97
4.43401e-101
8.1473e-104
9.45212e-107
8.72519e-111
1.19854e-112
5.5651e-116
6.24117e-119
7.11263e-122
9.2115e-126
4.36194e-129
1.16636e-131
6.35609e-135
3.74495e-139
8.70339e-143
2.98975e-145
1.0205
1.01433
1.11034
0.81768
1.02983
1.03033
1.00166
1.93075e-08
-4.06969e-18
-1.28931e-21
2.26764e-17
7.77529e-19
6.21388e-22
1.94621e-26
4.03885e-30
1.57543e-33
6.40865e-37
2.64039e-40
1.14808e-43
4.51588e-47
1.82434e-50
7.57665e-54
3.34252e-57
1.34291e-60
6.73252e-64
2.20146e-66
1.69316e-70
4.10171e-74
3.77851e-77
5.2498e-80
4.48329e-83
2.78569e-87
3.60208e-89
6.06782e-93
1.15138e-95
6.62313e-100
3.84648e-102
1.25994e-105
9.89196e-108
2.56287e-111
1.80536e-115
2.78711e-117
6.79635e-121
3.84792e-124
1.02247e-127
1.46207e-131
3.83397e-133
1.21112e-136
6.15475e-140
1.13381e-142
1.05462
1.02976
0.914499
0.95467
0.940753
1
1.00165
4.63134e-08
-2.0929e-18
-1.69401e-21
1.75439e-17
6.43227e-19
5.82038e-22
1.9196e-26
3.63581e-30
1.42418e-33
5.83424e-37
2.42441e-40
1.0083e-43
8.38361e-47
1.91216e-50
1.44865e-53
4.01604e-57
1.23097e-60
7.17881e-64
2.15373e-67
1.24835e-70
3.96245e-74
1.39763e-77
6.18026e-79
5.07736e-82
2.6325e-85
2.20833e-89
2.18057e-92
3.06413e-96
3.83547e-99
3.97292e-102
4.11984e-105
2.48963e-109
4.32138e-111
2.29911e-114
8.86401e-119
2.35686e-120
8.65659e-124
1.4829e-127
1.05838e-131
2.22044e-134
1.23748e-136
3.08155e-140
1.14985e-144
1.03527
0.601452
0.999766
0.973937
1.00866
1.00946
1.00344
2.90521e-09
-1.58443e-18
-7.46495e-23
3.91079e-18
2.81436e-20
1.26489e-23
4.01172e-27
7.55673e-31
2.36008e-34
9.68222e-38
4.15627e-41
1.77628e-44
7.50717e-48
3.56779e-51
1.38369e-54
5.95996e-58
2.61529e-61
1.29713e-64
8.08901e-68
2.02565e-71
9.18118e-75
2.07903e-77
4.30388e-81
8.06999e-85
1.53191e-87
1.5952e-91
1.39336e-94
5.62144e-97
1.45936e-100
2.3047e-104
1.47744e-106
3.59119e-110
7.82386e-114
8.12416e-117
9.59151e-121
2.74228e-122
1.05744e-125
1.66086e-129
1.89645e-133
5.80256e-137
2.38199e-140
5.76794e-143
6.80604e-144
1.10079
1.03393
1.05703
1.01647
0.99327
1.01801
1.00012
1.01609e-11
6.12959e-16
1.7535e-16
2.32534e-18
2.77704e-21
8.30101e-24
3.31252e-27
3.05739e-31
9.0976e-35
3.72443e-38
1.55392e-41
6.4924e-45
2.69794e-48
1.1179e-51
4.64973e-55
1.93305e-58
7.87545e-62
3.49391e-65
1.38779e-68
6.44147e-72
3.16875e-75
9.935e-79
9.49923e-82
1.84959e-85
6.92278e-89
6.62538e-92
3.1232e-95
6.12347e-99
5.38523e-102
9.97306e-105
1.79513e-108
2.93666e-111
2.21682e-113
8.97363e-117
7.21813e-120
8.26015e-124
1.20916e-127
6.41391e-131
1.69797e-134
6.40225e-138
2.5119e-141
1.06137e-144
2.57131e-145
1.07025
1.01246
1.15048
1.00853
0.980365
1.00782
0.434982
-2.16533e-18
-4.56896e-21
9.00987e-19
6.54629e-20
1.6916e-22
2.96961e-26
3.39738e-30
1.08772e-33
4.43901e-37
1.859e-40
7.75257e-44
3.25665e-47
1.36717e-50
5.6081e-54
2.38378e-57
9.77088e-61
4.13483e-64
1.68715e-67
6.95484e-71
2.87182e-74
1.26044e-77
4.82603e-81
2.89118e-84
2.10032e-86
7.29242e-90
6.97473e-93
4.03454e-96
2.50043e-99
1.07548e-102
3.10003e-106
2.68147e-109
2.66209e-113
1.44858e-115
2.78994e-119
3.21176e-123
3.2463e-125
4.492e-128
5.34299e-131
5.02859e-135
3.39921e-138
3.92372e-141
2.21634e-143
2.61598e-145
1.05731
1.04671
1.00242
1.04256
0.915202
1.00381
8.65461e-07
-2.9306e-20
-5.72308e-22
5.63678e-18
5.30386e-19
2.97409e-21
6.13937e-25
3.5844e-29
1.11892e-32
4.60054e-36
1.8829e-39
7.86703e-43
3.21031e-46
1.29909e-49
5.44953e-53
2.22854e-56
8.91883e-60
3.6559e-63
2.19775e-66
7.46367e-70
3.81867e-73
1.21952e-76
2.4767e-79
9.92848e-83
1.04034e-86
1.48484e-88
5.25316e-92
3.26773e-96
1.59904e-99
7.14305e-102
1.61835e-104
1.08756e-108
1.185e-110
4.41366e-114
1.67088e-117
4.48766e-120
1.21641e-123
5.91706e-127
4.12679e-131
3.44641e-133
2.7996e-136
1.20385e-139
3.3444e-143
2.73475e-145
0.0881467
0.993041
0.142608
0.997945
0.0938078
0.992736
0.146841
0.299872
1.00708
0.9215
0.99298
0.312646
1.00606
0.918887
1
1.00089
1.00009
1.00738
1.00001
1.00109
1.00038
1.00001
1.00439
1.00138
0.995954
1
1.00484
1.00131
1.00243
1.0102
1.00251
1.02817
1.00236
1.00895
1.00242
1.00235
1.02609
1.00508
1.00013
1.00281
1.01656
1.00499
1.00336
0.978389
1.00176
1.02245
1.00652
1
1.00111
1.00011
1.00834
1
1.00445
1
1.00684
1
1
0.993684
0.545603
1.00316
0.999987
1.00537
0.546994
0.332186
0.992765
0.0578978
0.987133
0.345127
0.951269
0.0571262
0.0938487
0.991886
0.147774
0.996754
0.0939623
0.996369
0.14834
0.313472
1.00615
0.917665
0.997558
0.312493
1.00581
0.918247
1.00015
1.00111
1.00133
1.00709
1.00001
1.00138
1.00052
1.00063
1.00485
1.0018
0.998309
1
1.00342
1.0013
1.00304
1.0123
1.00305
1.02994
1.00241
0.998446
1.00213
1.00275
1.01454
1.00537
1.00039
1.00126
0.997767
1.00499
1.00641
1.00009
1.00176
1.01001
1.00599
1.00176
1.00116
1.00037
1.00755
0.999967
1.01603
1
1.01198
0.999985
1
1.00275
0.546726
1.01466
1
1.00673
0.54678
0.346596
0.96872
0.0565113
1.00002
0.347818
1.00095
0.0617758
0.0930678
1
0.146571
0.999631
0.087472
0.998053
0.142765
0.312837
1.00621
0.91799
1.00173
0.306053
1.00661
0.922224
1.00031
1.00215
1.00123
1.00675
1
1.0032
1.00013
1.0005
1.00297
1.0018
1
1
1.00086
1.00159
1.00296
0.998076
1.0026
1.03197
1.00245
1.00575
1.00211
1.00154
0.993162
1.00541
0.988655
1.00144
0.987642
1.00521
1.00624
1.00235
1.00169
1.0069
1.00474
1.00051
1.0017
1.00039
1.01524
0.999703
1.0003
1.00015
1.06653
1
0.999968
1.01452
0.546739
1.00021
1
1.00205
0.545398
0.347447
1.01002
0.0620843
1.00013
0.336141
1.02769
0.056038
1.01524
1.00808
0.901834
0.990165
0.990516
0.997706
0.904353
1.00001
1.00031
0.997891
0.99996
0.998286
1.00007
1.00033
-1.50674e-20
-6.67314e-17
-1.99604e-17
3.74449e-08
4.90192e-12
3.83201e-07
9.68031e-12
1.00388
1.0699
1.01544
1.0447
1.00027
1.03809
1.01584
0.999964
1
0.992364
0.997583
1
0.994033
1.00026
-1.88636e-18
0.229608
-1.73476e-17
6.74612e-07
3.27711e-11
0.236977
2.02832e-11
1.01231
1.02556
1.00466
1.04164
1.01171
1.02769
1.00517
1.00322
1.00483
1.00558
1.00747
1.00455
1.00608
1.0032
-4.01829e-18
1
-5.8142e-15
0.563235
1.34659e-10
1.00008
8.35204e-09
1
1.03585
1.00221
1.00842
0.997307
1.03446
1.00299
0.983862
1
1
0.999889
0.998825
0.999997
0.979783
-1.50908e-16
1.00121
0.0027553
1.00103
2.00472e-07
1.00184
0.00705614
1.05838
0.99914
0.995223
1.04029
1.0586
0.995845
0.989487
1.00303
1.00954
1.01304
1.02853
1.01007
1.01186
1.00291
0.0177844
1.0015
0.0565441
1.00231
0.0251534
1.00197
0.063577
0.988083
0.965326
1.03426
0.995141
0.920907
0.977152
1.01837
1.00352
1.00553
1.01623
0.998427
1.00543
1.01543
1.00277
0.0663363
1.00237
0.0163794
1.00241
0.0736406
1.00293
0.0234653
1.05256
1.02021
1.02756
0.97094
1.07143
1.02758
1.06169
1.01646
1.00959
1.06315
1.02503
1.00914
1.06302
1.01613
0.0026044
1.00026
-4.0633e-20
1.00385
0.00669654
1.00076
2.00846e-07
0.976509
1.0551
1.01162
0.97464
1.00107
1.06126
0.99587
0.994889
1.00008
0.998815
1.00105
1.00017
0.999985
0.995746
-7.87506e-19
0.674767
-4.90588e-20
1.00027
9.26902e-09
0.677424
3.33922e-10
1.00529
1.11496
0.907756
1.03734
1.01962
1.11225
1.0307
1.00086
1.00284
1.00021
1.00231
1.00212
0.998998
1.00122
-4.3165e-16
0.00505495
-8.17204e-17
0.435038
1.0408e-10
0.0100137
1.24945e-10
0.868749
1.11799
0.990747
1.01166
0.843156
1.02085
0.759659
1.002
1.00001
1.00225
0.979452
1.00018
1.00078
1.00252
-1.39353e-17
-9.12159e-19
-4.88401e-23
9.18415e-07
1.23756e-11
5.24525e-08
6.67028e-12
0.999503
1.05017
0.918029
1.01696
0.991426
0.92351
0.95911
1
1
0.995969
0.997305
1.00006
0.996215
1
1.93643e-11
4.83351e-07
3.93572e-11
5.94855e-08
1.93643e-11
4.92046e-07
3.93266e-11
1.0077
1.03382
1.01639
0.867622
0.996396
1.03261
1.01637
1
0.999989
0.998453
0.9953
1.00011
1.00014
0.999554
1.29078e-10
0.238495
7.65304e-11
1.1239e-06
1.29321e-10
0.237892
7.65304e-11
1.0109
1.01761
1.00318
1.03576
1.00903
1.02336
1.00384
1.0035
1.00445
1.00595
1.00719
1.00383
1.00472
1.00581
2.95339e-10
1.00055
1.3836e-08
0.562827
2.9592e-10
1.00007
1.38088e-08
0.984676
1.03555
1.00069
1.00897
0.967386
1.03538
1.00412
0.985646
0.995786
0.94863
0.996761
0.98635
0.996234
0.934139
3.15749e-07
1.00197
0.00768145
1.00098
3.26263e-07
1.00179
0.0076526
1.05719
0.990401
0.976744
1.0347
1.05287
0.996816
0.995434
1.00348
1.01033
1.0112
1.02847
1.00355
1.0107
1.01044
0.0260271
1.00257
0.064691
1.00235
0.0259489
1.0019
0.0647024
0.913142
0.915439
0.985889
1
1.04151
0.989348
0.95422
1.00022
1.00234
0.989745
1.01115
1.00038
1.00126
0.999853
0.0744872
1.0037
0.0242195
1.00183
0.0746499
1.00302
0.0242419
1.06153
1.06992
1.06764
0.965819
1.01332
1
1.01107
1.01508
1.00716
1.03421
1.01774
1.01876
1.00743
1.02792
0.0072586
1.00144
3.21998e-07
1.00334
0.00719456
1.00083
3.16494e-07
1.04542
1.08227
1.00227
0.990097
1.05669
1.00714
1.01687
0.997182
1.00008
1.0112
1.01013
0.994718
1.00026
1.00798
1.60896e-08
0.675081
7.62383e-10
1.00037
1.62489e-08
0.675205
7.09458e-10
1.00502
1.11791
1.05997
0.960216
1.00318
1.05873
1.06537
1.00107
1.00221
0.999755
1.00826
1.00107
1.00238
1.00003
4.1003e-10
0.0107943
7.57245e-10
0.435095
4.1003e-10
0.0107878
7.57066e-10
0.85333
1
0.865896
0.990977
0.99445
1.04496
0.82545
1
1
0.988908
0.998849
0.999986
1.00026
0.991339
4.44448e-11
7.04087e-08
2.10805e-11
1.10986e-06
4.45124e-11
5.94795e-08
2.10805e-11
0.975657
0.943322
0.996398
0.998363
0.980113
0.963315
0.981824
1
1
0.995054
0.997005
1.00006
0.995131
1.00001
4.97344e-12
4.02853e-07
9.73273e-12
-1.75912e-15
-1.48118e-20
-7.92088e-17
-2.11856e-17
0.99794
1.04504
1.01421
0.999884
0.997905
1.00327
1.01366
1.00053
1.00062
1
0.999945
1.00089
1.00119
0.999243
3.28266e-11
0.237734
2.03073e-11
-9.58339e-17
-1.77161e-18
0.228676
-1.77889e-17
1.01073
1.01905
1.00447
1.03463
1.01021
1.02172
1.00649
1.00316
1.00447
1.00462
1.00702
1.00369
1.00497
1.0045
1.32264e-10
1.0004
8.3486e-09
0.56291
-5.02538e-18
1
-6.30525e-15
0.942642
1.02249
1.00213
1.01801
0.949655
1.0249
1.00816
0.983943
0.994787
0.932238
0.997991
0.984601
0.994708
0.931447
2.04926e-07
1.00192
0.0070563
1.00002
-1.17965e-15
1.00094
0.00279652
1.05349
0.817466
0.997859
0.987392
1.02374
0.924961
0.964384
1.0026
1.00965
1.00956
1.03156
1.00297
1.00899
1.01124
0.0249442
1.00249
0.0640799
1.00124
0.0176921
1.00138
0.0564743
1.00687
0.975269
1.00412
1.02082
0.953357
0.958125
0.961423
0.9998
0.99975
0.981388
1
0.998384
1
0.973468
0.0732066
1.00364
0.0234596
1.00116
0.0658146
1.00232
0.0164181
1.00249
0.950208
1.00717
1.02916
1.00427
0.852872
0.998378
1.01488
1.00768
1.02449
1.00724
1.01484
1.00769
1.01669
0.00656673
1.00143
1.99217e-07
1.00268
0.00257332
1.00023
-3.70084e-20
1.06068
0.970876
1.10652
0.977233
0.989108
0.929286
1.10878
0.999876
1.00171
0.962285
1.03376
0.988994
1.00233
0.99697
9.37942e-09
0.673536
3.00464e-10
1
-8.04452e-19
0.668063
-4.07721e-20
1.00673
1.04257
1.05372
1.08424
1.02472
1.00303
0.993929
1.00336
1.00219
1.00059
1.01758
1.0007
1.00422
1.0237
1.04413e-10
0.0100041
1.25915e-10
0.432454
-4.84881e-16
0.00504355
-1.32164e-16
0.995185
0.951432
1.0633
0.995604
0.945477
1.03628
1.09219
1.00011
1.00036
1.01292
1.02367
1.00018
1.00009
1.02219
8.35887e-12
3.53059e-08
4.59543e-12
-3.97249e-15
-2.31831e-17
-6.7594e-19
-1.99393e-23
0.736158
0.807
0.0478233
0.0911094
0.0505402
0.735725
0.80726
1
0.992516
1
0.993523
0.992973
1
1.00008
0.853254
0.122345
0.874612
0.144451
0.124606
0.874782
0.85354
1.00007
0.998744
1.00007
0.996991
0.996384
1
1.00022
0.735593
0.0923317
0.808623
0.0537165
0.0520602
0.736522
0.807472
1.00009
0.991669
0.992245
1
0.991035
1.00011
1
0.852321
0.145677
0.127585
0.874625
0.126146
0.874093
0.85257
1
0.965475
0.477912
0.30479
0.962714
0.47851
1.00007
1.00072
1.00225
1.00239
1.00646
1.00225
1.00252
1.00132
1.00004
0.735375
1.0007
0.92006
0.736327
1.00077
1.00035
1.00013
0.995022
1.00003
0.998452
1
0.996825
0.999984
1.00011
0.308234
0.958133
0.479432
0.960556
0.478668
1
1.00112
1.00645
1.002
1.00241
1.00227
1.0029
1.00063
1.00033
0.918185
0.736593
1.00088
0.735916
1.00147
1.00004
1.00149
1.00129
1.00022
1
1.00144
1.00045
1.00199
1.0011
0.997568
1.00033
1.00088
0.997607
1.00027
1.00149
1.00112
1.00057
1.00028
1.00025
1.00084
1.00017
1.00219
1.00381
1.0073
1.00475
1.00628
1.00446
1.00604
1.00346
1.00214
1.00034
1.00134
1.00029
1.00199
1.00096
1.0014
1.00144
1.00106
0.99779
1.00017
0.99774
1.00045
1.00101
1.00161
1.00129
1.00114
1.00011
1.00155
1.00087
1.00113
0.999216
0.998096
1.00009
0.99996
0.998517
1.00015
1.00025
1.0015
0.999936
1.00413
1.00463
0.999969
1.00265
1.00346
1.0015
1.00035
1.00348
1.0022
1.00049
1.00305
1.00212
0.99607
0.998739
0.995799
0.978159
0.996431
0.997223
0.993088
0.997741
1.00059
0.998431
1
0.999262
1.00016
0.999082
0.999478
1.00505
1.00052
1.00261
0.999074
1.00315
1.00036
1.0016
1.00218
1.00044
1.00233
1.00107
1.0029
1.00109
1.00333
1.00518
1.00321
1.00257
1.0049
1.00316
1.00448
1.00033
1
1.00552
1.00966
1
1.00541
1.00105
1.00234
1.00262
1.00361
1.00258
1.00279
1.00344
1.00306
1.00345
1.02806
1.01046
1.01117
1.01032
1.01157
1.00328
1.00342
1.003
1.00478
1.0029
1.00505
1.00362
1.00296
1.00048
1.0108
1
1.00459
1
1.00587
1.0004
1.00233
1.00309
1.00261
1.00322
1.00334
1.00366
1.00201
1.00294
1.00404
1.00267
1.00253
1.00424
1.00268
1.00364
0.997758
1.00289
1.00194
1.02661
0.997367
1.00186
1.00173
1.00557
1.00515
1.0082
1.00501
1.00486
1.00782
1.00565
1.00324
1.00176
1.00546
1.00305
1.00602
1.00855
1.00238
1.00269
1.00298
1.00438
1.00262
1.00455
1.00319
1.00224
0.999118
1.01704
0.945559
1.00179
0.955354
1.00219
0.998605
1.00591
1.00533
1.00464
1.00744
1.00503
1.00764
1.00547
1.00912
1.00848
1.00483
1.00295
1.00728
1.00458
1.00876
1.00573
1.01712
1.00157
0.97924
1.01784
1.00188
1.0055
1.00501
1.0035
1.00211
1.00132
1.00348
1.0021
1.00519
1.01853
1.02488
1.00722
1.0268
1.00788
1.0573
1.01708
1.00905
1.00403
1.00823
1.00498
1.0068
1.00495
1.00851
1.00538
0.991147
1.01467
1.00203
1.01813
1.00201
1.00499
1.0054
1.0018
1.0034
1.00211
1.004
1.00218
1.00515
0.991972
0.999962
1
1.00009
1
0.99971
0.990518
0.960739
1.00271
1.00173
1.00818
1.00339
1.00203
0.960573
0.970017
0.999357
0.989371
1
0.9973
0.992455
0.982722
0.995231
1.00207
1.0001
1.00419
1.00004
1.00163
0.99611
0.99369
1.00039
1
0.999467
1
0.9994
0.990971
0.961675
1.0065
1.0007
1.00223
1.00165
1.00215
0.963117
0.961794
1
0.997144
0.994742
0.997659
0.993149
0.971234
1.00025
1.00007
0.923103
1
1.00008
0.923807
1.0005
0.998001
0.917145
0.999728
0.987773
0.921477
1
1
1
0.762863
1
0.546371
0.763953
1
1.00012
1.00101
1.00205
1.00231
0.998024
1.00228
0.996471
1.00094
1.00049
1
1
0.92248
1.00021
0.922049
1.00026
0.996504
0.997781
0.973745
1.00046
0.939634
0.999539
0.999244
1
0.546106
0.764381
1.00001
0.763982
1.00003
1
0.883222
0.985281
0.161952
0.337649
0.982337
0.166409
0.883301
0.998382
0.938722
1.00185
0.952666
0.913248
0.997312
0.998248
0.849336
0.127095
0.753907
0.0546043
0.125182
0.846324
0.761267
1.00158
0.997994
1
0.996587
1.00008
1.00038
1
0.883585
0.340733
0.978596
0.168587
0.980674
0.167588
0.885282
1
0.962784
0.942711
1
0.94043
0.999986
1
0.848853
0.0561804
0.131027
0.755852
0.126228
0.845254
0.756055
0.735684
0.809329
0.0546287
0.0945998
0.736122
0.0553937
0.80873
1
0.991118
1.0001
0.993881
1.00011
0.99316
1
0.851135
0.128594
0.873998
0.148549
0.851875
0.129227
0.873195
1.00006
0.997741
1
0.995986
0.995742
1
1
0.735685
0.0946591
0.808952
0.0545329
0.0552399
0.736119
0.808965
1.0001
0.992852
0.995242
1
0.991564
1.00012
1
0.851103
0.148629
0.128492
0.87259
0.12918
0.87304
0.85101
1
0.957774
0.479563
0.314108
1.00013
0.957191
0.479458
1.00063
1.00202
1.00292
1.00576
1.00103
1.00186
1.00238
1.00005
0.736333
1.00162
0.917963
1.00036
0.736393