/*--------------------------------*- C++ -*----------------------------------*\
| =========                 |                                                 |
| \\      /  F ield         | OpenFOAM: The Open Source CFD Toolbox           |
|  \\    /   O peration     | Version:  5.0                                   |
|   \\  /    A nd           | Web:      www.OpenFOAM.org                      |
|    \\/     M anipulation  |                                                 |
\*---------------------------------------------------------------------------*/
FoamFile
{
    version     2.0;
    format      ascii;
    class       surfaceScalarField;
    location    "2.5";
    object      alphaPhi10;
}
// * * * * * * * * * * * * * * * * * * * * * * * * * * * * * * * * * * * * * //

dimensions      [0 3 -1 0 0 0 0];

internalField   nonuniform List<scalar> 
29467
(
4.97025e-08
4.48088e-08
3.74639e-08
4.56061e-08
4.04193e-08
4.59976e-08
6.4824e-08
-3.83613e-09
2.87856e-08
-5.5546e-09
1.48116e-09
2.62142e-09
3.09893e-10
-4.52243e-10
5.96517e-08
4.2319e-08
5.60857e-08
4.99339e-08
1.41886e-08
-3.33832e-09
3.4614e-08
2.23933e-08
1.85847e-08
2.41255e-08
2.19925e-08
-6.24875e-09
3.91175e-10
-1.09583e-09
1.0166e-08
6.94713e-13
-7.2649e-20
1.27775e-15
4.32077e-13
2.7988e-13
7.6951e-13
-1.46607e-15
-2.14278e-15
-1.149e-15
-1.12878e-15
4.60173e-23
-1.03334e-20
-1.77404e-23
-1.04375e-19
-6.28841e-20
-8.98804e-20
2.46409e-19
1.2329e-26
-9.70814e-25
-1.32266e-25
5.02876e-27
-4.44423e-27
-9.30805e-31
5.0797e-29
-5.57373e-29
4.1354e-33
9.07054e-33
-4.87906e-32
2.97913e-33
5.20085e-37
-5.58208e-36
2.94537e-35
1.51773e-40
-1.07216e-39
-2.77223e-39
5.59967e-44
-2.61541e-43
2.23945e-42
2.07194e-47
-8.75312e-47
4.43752e-45
7.57228e-51
-1.62469e-50
1.95309e-48
2.75522e-54
-3.58421e-54
1.8895e-51
9.83997e-58
-1.45255e-57
2.28171e-54
3.47546e-61
-2.5405e-61
3.00049e-59
1.24589e-64
-1.00167e-64
-4.471e-61
4.48153e-68
-2.50017e-68
1.35202e-63
1.65742e-71
-1.29807e-71
1.26068e-67
4.66501e-75
-7.2155e-76
1.62467e-72
2.24347e-78
-7.4898e-79
3.87272e-74
1.31767e-81
-8.26939e-82
-1.61224e-76
3.6895e-85
3.42139e-86
2.23961e-80
7.43479e-88
-3.65193e-89
-1.43577e-84
3.02313e-90
2.67053e-91
-2.64854e-86
2.22646e-94
1.08605e-96
6.23868e-90
1.14218e-97
6.62669e-98
8.11282e-93
3.25566e-101
1.75038e-102
-1.43269e-96
1.08257e-103
-1.74786e-105
7.0709e-99
5.27484e-106
-1.55456e-106
1.82437e-101
5.13902e-110
-7.47176e-111
3.20996e-105
3.23846e-113
2.20755e-114
-5.4861e-108
4.61154e-116
3.41965e-117
2.14564e-112
9.40468e-119
7.61186e-120
3.06303e-115
6.76517e-123
-1.09881e-123
1.8795e-118
2.186e-126
-3.2871e-127
1.40869e-126
2.44775e-129
8.70138e-131
-6.59842e-125
4.95406e-132
-1.90531e-134
1.4554e-127
6.94993e-135
1.05877e-135
2.51254e-131
2.29522e-137
5.15917e-138
2.53801e-134
2.19779e-141
-8.87829e-143
-7.83549e-138
2.08506e-144
-1.02934e-144
6.02048e-140
3.97205e-148
5.00197e-149
3.90986e-143
4.67898e-151
2.95326e-154
1.7728e-147
6.15776e-153
3.31976e-154
-6.22923e-150
1.13893e-157
1.89257e-158
3.22622e-09
6.49833e-08
4.12597e-08
4.26875e-08
4.377e-08
4.54932e-08
4.89691e-08
4.85311e-08
4.90092e-08
5.01996e-08
1.45386e-08
3.32517e-08
4.94786e-08
5.34604e-08
4.17998e-08
3.19866e-08
3.18929e-08
3.13524e-08
-3.39443e-08
-2.59428e-08
-3.13475e-08
4.53766e-08
5.644e-08
-1.51969e-08
2.40397e-08
5.54687e-09
4.21999e-08
5.21421e-08
3.52954e-08
3.21428e-08
3.91865e-08
-8.22964e-08
-1.05457e-08
-1.61462e-09
-2.52421e-09
-2.64919e-09
5.97772e-10
4.75059e-09
2.06794e-14
5.74076e-15
1.78158e-08
6.89278e-15
1.78158e-08
8.68493e-22
-1.27355e-18
-8.24901e-21
-3.33546e-19
-9.06541e-19
2.77233e-20
3.63048e-18
-1.34992e-18
-2.17928e-18
-1.35146e-18
-6.11167e-27
-1.54275e-22
2.56452e-25
9.33875e-28
-5.80624e-26
-5.51533e-29
1.707e-30
-7.276e-29
-1.59335e-31
1.09928e-33
-1.05595e-31
1.19652e-33
9.21986e-38
-3.60141e-34
4.50094e-37
2.53029e-41
-7.13855e-38
1.75152e-40
9.50378e-45
-9.06493e-42
1.27335e-43
3.65872e-48
-2.28308e-45
-4.86793e-46
1.40315e-51
-6.99692e-49
2.29781e-49
5.3546e-55
-1.62079e-52
-3.43448e-52
2.02492e-58
-3.55981e-56
-2.23575e-55
7.52761e-62
-2.59651e-60
2.39584e-59
2.8012e-65
-5.07117e-63
-3.87959e-62
1.06747e-68
-2.71002e-67
-2.71259e-65
4.41588e-72
-8.10397e-70
2.59347e-68
1.80091e-75
6.7741e-74
-1.90939e-71
7.95502e-79
-8.39608e-78
-4.20413e-76
4.0755e-82
-8.07645e-82
1.1866e-78
1.40505e-85
-1.61368e-83
-1.04061e-80
5.5491e-89
2.51732e-88
3.48677e-84
3.87521e-92
2.75275e-92
-1.3768e-87
1.77659e-95
7.47587e-94
6.1491e-90
2.65746e-98
-6.04944e-99
5.85173e-95
4.79661e-101
1.81025e-102
-4.30814e-98
4.82888e-105
-2.88449e-104
2.36638e-100
2.46062e-108
2.81928e-108
4.97317e-102
1.45904e-111
3.6629e-112
5.2275e-107
1.22428e-114
5.16785e-115
1.09465e-109
6.02026e-118
-4.38897e-118
1.26995e-113
1.42206e-120
8.86372e-123
-8.78485e-121
2.01781e-122
-2.02368e-124
1.85576e-119
1.6231e-126
-2.2268e-127
8.26133e-122
4.57203e-130
1.01061e-130
1.72893e-126
3.46201e-133
-4.5559e-134
1.67686e-128
5.14973e-137
-1.03571e-137
8.08598e-136
2.03588e-140
1.31132e-141
4.21962e-139
2.90307e-143
3.37081e-144
7.66467e-138
5.34442e-146
-2.07798e-147
7.42257e-141
1.43507e-149
-2.11194e-149
-3.91369e-144
2.44279e-153
-2.00181e-152
-1.84819e-147
1.66512e-153
4.41967e-156
1.88816e-152
1.08814e-157
-9.30262e-155
-1.16569e-08
5.43376e-08
4.73585e-08
4.7945e-08
5.48603e-08
-3.10716e-08
1.24295e-08
7.59263e-08
5.37879e-08
7.55563e-08
-2.78145e-08
-1.28862e-07
2.11187e-07
2.61492e-07
-1.36871e-07
-4.7413e-09
-4.85693e-09
3.56664e-08
4.82361e-08
2.08009e-08
-1.56929e-08
-2.46358e-08
5.03719e-08
-2.266e-08
4.21206e-08
-2.50627e-08
-6.33168e-09
-8.07645e-10
-1.8575e-07
-3.44863e-08
-3.4283e-08
-3.86567e-08
-3.66822e-08
-1.05951e-10
2.21456e-09
2.87376e-09
7.06049e-09
-9.47397e-09
-1.21561e-10
1.80701e-12
1.44172e-09
-3.27694e-11
1.4537e-09
1.41654e-19
-1.35223e-18
-5.74826e-09
-1.29328e-18
1.01386e-19
1.45279e-19
2.15701e-19
5.21201e-25
-8.81198e-22
-1.78047e-23
7.38691e-20
7.39914e-20
7.32585e-20
7.36501e-20
1.18239e-25
-1.44193e-25
-1.53686e-26
7.05151e-30
-1.55766e-28
-4.16673e-31
1.9468e-32
1.13243e-31
-1.62129e-32
4.26003e-35
2.95697e-34
3.27529e-36
6.16717e-39
4.34514e-38
1.33179e-39
1.49888e-42
8.71513e-42
7.44104e-43
5.606e-46
2.18584e-45
-1.59615e-46
2.17252e-49
6.05964e-49
9.26511e-50
8.37654e-53
1.67677e-52
6.14059e-51
3.19643e-56
3.67902e-57
-7.40419e-55
1.2075e-59
2.39428e-60
3.95266e-58
4.51771e-63
-4.37118e-65
-1.08651e-61
1.66833e-66
-5.67732e-68
-2.53702e-65
6.06815e-70
4.47073e-70
7.24134e-68
2.17083e-73
3.81673e-74
-6.76102e-71
7.66607e-77
1.53561e-76
-1.20449e-74
2.6892e-80
-1.22323e-80
-7.94671e-78
8.71718e-84
-1.3926e-84
-1.29806e-79
2.72632e-87
-4.08163e-87
3.94153e-84
1.07066e-90
-9.83833e-92
-3.54364e-86
3.83038e-94
-1.38789e-94
2.01509e-89
3.98029e-98
-2.48007e-97
4.49349e-96
3.27513e-100
-5.25397e-99
-3.98162e-99
1.42983e-102
1.49789e-103
1.66807e-99
2.20631e-106
3.7491e-107
-1.80813e-101
6.18277e-110
-1.05781e-110
4.32257e-105
2.48125e-113
-1.61286e-113
2.84735e-109
9.19434e-117
-6.72839e-118
-2.27332e-112
1.20397e-119
-2.13507e-120
-4.72809e-116
5.7508e-122
1.44419e-123
-5.63226e-119
1.49194e-125
3.71666e-124
1.09301e-120
3.43491e-129
7.16902e-129
4.28029e-124
2.76547e-132
-2.96977e-131
-3.66265e-127
2.24659e-135
-4.78257e-134
-4.01842e-131
4.53225e-139
-2.90869e-137
4.09593e-135
3.64927e-142
3.16818e-142
1.8992e-136
4.67614e-145
2.78159e-144
4.97928e-140
9.63817e-148
6.73693e-149
3.13555e-144
2.42085e-151
7.27921e-152
-1.44053e-146
1.50006e-153
-8.43795e-156
1.09699e-149
-1.28058e-157
1.10429e-154
5.32282e-09
4.59355e-08
4.91933e-08
5.08834e-08
1.69903e-08
-7.12727e-09
-1.06416e-08
5.28231e-08
4.31569e-08
-3.52113e-09
3.96942e-09
5.25374e-08
6.41417e-09
4.99228e-08
-2.31767e-09
9.97397e-09
2.27534e-08
-5.06847e-08
-1.32239e-09
-1.13517e-09
-4.0065e-10
9.78373e-10
-5.05306e-10
2.3794e-09
4.28648e-10
-2.1562e-08
-1.19737e-07
-5.87502e-08
1.69468e-07
-3.29682e-08
2.33232e-09
-1.61413e-08
3.34096e-09
-1.56173e-09
1.26489e-08
-2.67563e-10
-8.54401e-11
2.02382e-10
-1.76316e-12
2.52886e-10
2.70331e-17
4.68424e-19
-1.96558e-08
2.2207e-18
2.85096e-16
-2.9258e-16
3.56634e-16
3.38255e-18
2.02982e-24
-4.3122e-24
-4.84261e-22
2.66324e-19
2.63087e-19
2.49026e-19
2.97384e-19
1.11692e-26
1.66635e-25
5.9563e-27
2.61989e-27
2.65256e-27
5.4793e-30
4.73375e-31
1.33366e-29
-3.73655e-31
3.19951e-35
4.90249e-33
5.74913e-35
9.48944e-39
6.86035e-37
1.40209e-38
3.31862e-42
1.34204e-40
1.8037e-41
1.32309e-45
3.60296e-44
2.94272e-44
5.43012e-49
5.08914e-48
-3.14358e-48
2.22644e-52
2.93391e-51
7.74384e-51
9.05029e-56
1.56234e-54
-6.59928e-53
3.66177e-59
-1.73308e-59
1.48775e-57
1.47631e-62
3.15611e-62
6.81597e-60
6.13037e-66
-1.09724e-65
-4.26039e-64
2.67216e-69
5.58996e-69
8.31435e-66
1.13358e-72
2.72288e-73
-2.11782e-69
4.98984e-76
8.52263e-78
1.03356e-72
1.71053e-79
-1.40524e-79
-2.29502e-75
9.29248e-83
2.10443e-83
-9.79409e-80
8.87746e-86
9.39472e-86
2.48399e-82
1.95934e-89
-3.07394e-88
-4.7647e-85
1.18981e-92
-3.9661e-94
-1.24425e-89
2.82352e-95
2.42909e-96
3.36259e-92
1.89585e-98
5.16038e-100
-1.35817e-94
2.81551e-102
-1.2618e-101
-3.47642e-97
2.12958e-105
2.0934e-106
5.89908e-101
3.44689e-108
3.7602e-109
3.86387e-104
4.67475e-112
9.51051e-115
-9.39542e-108
2.57116e-115
-1.09927e-115
-1.78788e-110
7.93855e-118
-4.04129e-118
9.48363e-114
4.02106e-120
7.9342e-121
-2.51135e-117
3.5074e-124
2.60082e-124
4.25317e-119
2.10335e-127
-2.75323e-129
4.64103e-123
4.69674e-130
-1.3316e-130
1.05085e-125
6.7705e-134
-6.98832e-135
4.4918e-134
7.65993e-137
-2.2699e-137
7.30424e-133
5.98412e-140
1.26447e-140
1.21209e-135
1.70995e-143
3.76703e-145
9.18963e-139
6.65492e-147
1.28343e-145
-1.38529e-141
2.88638e-150
2.63141e-150
1.53703e-146
4.67314e-153
3.82898e-153
-1.45741e-149
-1.82297e-155
7.95751e-152
5.39933e-09
5.51612e-08
-1.4042e-08
-1.22707e-08
-4.36954e-09
-1.34441e-08
9.84842e-10
-6.92553e-08
-5.23596e-10
4.33086e-07
-2.69738e-08
-3.53855e-08
-9.87934e-08
-7.60252e-09
4.55286e-08
-1.08805e-08
5.11918e-08
-7.02648e-10
2.31393e-08
1.77278e-09
-1.78164e-08
1.30324e-08
3.87161e-09
7.50728e-09
6.43057e-09
-7.60363e-08
-5.64617e-08
5.42099e-08
4.6998e-08
-4.64032e-08
-1.63455e-09
-1.60292e-08
1.92268e-09
-7.0836e-09
2.12604e-08
-2.69687e-09
-9.42861e-11
5.44845e-11
-7.16172e-11
2.65401e-10
-3.02727e-15
-3.08102e-18
-2.17123e-08
5.77061e-16
4.94327e-14
-4.14963e-14
-3.30353e-15
-2.5342e-17
5.90836e-23
1.06635e-20
-1.12046e-21
5.88686e-18
5.85471e-18
5.77774e-18
6.02459e-18
1.52643e-25
1.78073e-24
-1.98841e-25
1.46047e-26
7.85664e-27
1.30088e-29
3.36575e-29
6.05101e-29
6.25239e-30
1.2442e-33
2.12633e-32
-8.99806e-33
1.59421e-37
2.44201e-36
8.45484e-37
5.81352e-41
6.04014e-40
-8.13454e-40
2.21026e-44
1.45342e-43
-6.70653e-42
8.34601e-48
3.88568e-47
4.3551e-46
3.13901e-51
1.00195e-50
5.9342e-49
1.17533e-54
2.30707e-54
1.72257e-51
4.37629e-58
2.32506e-58
5.50282e-55
1.6227e-61
1.23984e-61
1.40843e-58
6.00223e-65
4.5761e-65
1.57356e-61
2.13716e-68
8.78399e-69
1.64433e-64
7.74134e-72
1.15287e-72
2.43957e-68
3.33807e-75
5.15291e-76
-1.44508e-72
1.89991e-78
1.8904e-78
-2.87109e-74
5.99871e-82
-1.19364e-83
9.99702e-78
6.06322e-85
3.73096e-86
2.6449e-80
9.16492e-88
5.28388e-89
4.24569e-84
2.28491e-91
-1.68207e-90
-2.44863e-86
2.03097e-94
-2.35969e-94
1.41957e-90
7.05156e-98
1.35767e-98
2.66482e-93
1.78734e-100
-3.15324e-101
-1.77664e-96
1.21916e-104
1.50734e-105
8.03808e-100
4.03815e-108
6.83228e-108
-5.95496e-104
7.50287e-111
2.99027e-111
2.76683e-107
2.21646e-113
-3.11722e-114
-3.06644e-109
2.59052e-117
-2.53258e-117
-1.22457e-111
1.45827e-120
2.67056e-121
5.39374e-120
3.84634e-123
2.53521e-124
9.1406e-119
2.24683e-127
-6.50362e-128
-3.35763e-123
6.37235e-131
-1.03446e-128
1.87828e-129
6.19473e-134
-4.25288e-132
-6.14907e-133
1.67982e-136
3.59644e-136
-2.5691e-131
2.01417e-139
2.81099e-139
-1.02853e-134
2.25756e-142
-5.65327e-143
7.82519e-138
1.36479e-144
1.33318e-145
7.83875e-140
2.04889e-148
1.39675e-148
1.23039e-143
2.08374e-151
4.90222e-152
1.73221e-147
3.9259e-156
-1.10758e-150
6.53988e-09
5.99538e-08
2.20882e-08
5.79932e-08
5.97578e-08
2.66375e-08
6.65124e-08
7.21242e-09
4.7312e-08
3.15809e-08
3.32964e-08
5.07441e-08
3.03412e-08
5.3153e-08
6.96672e-08
5.04914e-09
1.14433e-08
3.78873e-09
-1.68265e-08
-2.15305e-08
-2.26754e-08
-1.56628e-08
7.35177e-08
7.1437e-08
7.94757e-08
3.02589e-08
-1.04559e-08
5.27995e-08
5.35757e-08
-1.08504e-08
3.40066e-09
-5.98878e-09
6.87079e-09
2.95883e-09
-6.68814e-09
-1.17577e-09
-1.23031e-10
2.09616e-10
3.13508e-11
9.77691e-11
-1.00462e-13
3.27719e-17
-1.82663e-08
1.09164e-15
-9.9029e-16
1.53137e-13
-1.78063e-13
1.23636e-13
-2.769e-23
1.38577e-21
-2.31985e-21
5.77791e-18
5.72319e-18
5.60278e-18
5.78607e-18
6.37411e-26
2.53086e-25
-1.18159e-26
8.70658e-27
3.87905e-27
2.35212e-29
2.88996e-29
2.35833e-29
5.3035e-30
1.20916e-33
1.08404e-32
4.1377e-32
1.3766e-37
1.28193e-36
4.37202e-36
4.90583e-41
3.14306e-40
2.11784e-39
1.84361e-44
8.46773e-44
-1.62213e-41
6.94837e-48
2.12692e-47
8.47476e-46
2.61764e-51
6.6304e-51
2.22797e-49
9.86817e-55
1.51668e-54
2.18262e-51
3.8132e-58
3.60252e-58
-1.23356e-54
1.3163e-61
-2.05863e-62
7.09148e-59
4.69738e-65
2.82819e-65
4.63274e-61
1.792e-68
3.55483e-69
1.45539e-64
7.39081e-72
2.16352e-72
7.86926e-68
9.08981e-75
1.65575e-76
-7.80489e-71
4.83677e-77
2.65265e-78
-7.4004e-74
1.99762e-81
7.28182e-83
-1.88406e-77
8.21517e-85
1.82539e-86
-5.95734e-81
2.40593e-87
7.55101e-89
1.36432e-83
8.07986e-90
1.472e-90
-1.39653e-86
1.65426e-93
1.16809e-93
-7.96732e-90
6.18587e-97
6.18343e-98
1.7804e-94
1.46048e-100
1.59805e-101
-2.34929e-96
9.02418e-104
4.34374e-105
-8.03265e-99
7.62079e-107
9.20967e-108
8.74889e-103
1.56966e-110
-4.61711e-111
2.97252e-105
1.44719e-113
-2.03441e-114
-2.34498e-108
9.76819e-117
2.59491e-117
-2.47031e-111
1.93507e-120
-4.50499e-122
-1.5623e-120
2.94344e-123
-4.03989e-125
-1.55074e-118
1.94591e-125
1.16631e-127
5.42588e-122
4.42671e-128
-2.35316e-131
3.14437e-125
4.93273e-132
-1.40565e-135
1.73743e-128
1.09855e-135
-1.03717e-139
3.18628e-131
4.98574e-139
1.77579e-140
9.23772e-134
2.92128e-142
-5.4868e-145
4.79531e-139
5.63265e-146
8.95634e-147
-5.88558e-144
2.10622e-149
2.02939e-150
2.94463e-144
4.52793e-153
8.09208e-154
-2.88187e-147
1.13825e-156
1.15803e-154
1.8458e-09
5.2185e-08
4.60641e-08
6.7106e-08
-7.73603e-09
-7.88984e-09
-4.87783e-09
4.65253e-08
-1.51034e-08
-1.46951e-09
5.51213e-08
8.4579e-10
-3.6352e-09
6.81419e-11
-2.63938e-07
-3.07962e-07
-4.61737e-07
-1.83514e-07
-4.47467e-08
-4.97879e-08
-3.00042e-08
-3.44786e-08
-2.24137e-08
4.54775e-08
3.97614e-08
5.09189e-08
-3.5335e-09
3.85922e-10
5.25316e-08
-1.41975e-08
5.61228e-08
4.4821e-08
3.06982e-08
3.19187e-08
4.69762e-08
4.60934e-08
-3.54245e-10
1.52843e-08
-3.44853e-09
-2.54797e-09
-8.58978e-09
-3.87073e-10
-6.64662e-10
7.15738e-10
-1.61216e-10
1.51734e-10
2.78212e-15
-1.09179e-16
-3.4828e-08
-3.4828e-08
-1.17197e-17
1.97507e-15
-1.02132e-14
2.21523e-15
2.92213e-25
1.48076e-21
5.63163e-23
2.56041e-19
2.54137e-19
2.6776e-19
2.45159e-19
3.06894e-26
1.92737e-25
-3.85887e-27
2.4335e-27
3.30866e-28
3.81226e-30
2.92641e-31
4.30426e-31
2.35143e-31
2.79906e-35
5.9739e-34
3.12193e-34
8.77631e-39
1.60483e-37
6.09909e-38
2.96421e-42
2.3652e-41
4.79532e-41
1.16358e-45
5.41664e-45
1.08893e-44
4.77742e-49
1.4205e-48
1.58734e-47
1.9708e-52
3.50594e-52
-1.09125e-51
8.10532e-56
7.12173e-56
1.22312e-53
3.35141e-59
2.89071e-59
-5.43558e-57
1.38639e-62
3.29865e-63
-6.56526e-59
5.52664e-66
1.35331e-66
1.4897e-63
2.24317e-69
7.08478e-70
1.05801e-65
9.47168e-73
9.36702e-74
2.7153e-70
4.19653e-76
1.18699e-76
-1.03169e-73
1.4506e-79
2.60593e-81
2.44575e-78
6.05733e-83
6.8206e-84
-3.96279e-80
5.37654e-86
6.20672e-88
3.44663e-82
7.27639e-89
4.82984e-90
4.228e-85
9.41111e-93
-2.38007e-93
-1.65673e-89
3.23282e-96
2.50323e-97
-5.68867e-92
1.41187e-99
1.25501e-101
-1.72144e-95
6.43765e-103
1.76108e-104
5.64501e-101
4.61374e-106
-4.56296e-107
-1.74395e-101
2.45933e-109
3.51362e-111
-9.23521e-105
3.46681e-112
1.5813e-113
5.72603e-107
2.63133e-115
1.12957e-118
5.04607e-111
8.8045e-118
1.16495e-120
-5.06335e-114
3.30435e-121
7.39033e-123
3.02287e-117
2.91522e-124
-1.08024e-125
-1.0417e-119
5.221e-128
-8.391e-131
-1.48276e-125
2.63548e-131
4.10922e-132
6.25042e-126
7.7039e-135
2.66522e-135
-8.2332e-130
6.46581e-138
5.96392e-140
1.22108e-136
1.87615e-140
5.1276e-143
-3.01272e-137
1.30932e-143
2.11774e-147
-3.01887e-139
8.00253e-146
-4.51556e-149
-5.27999e-143
4.1419e-150
-5.58613e-153
3.14945e-150
6.06885e-153
1.02392e-154
5.14684e-151
4.00478e-156
5.75981e-152
-7.66533e-09
5.36838e-08
5.00477e-08
1.5137e-08
3.70089e-08
-1.32613e-09
1.01725e-07
-1.13621e-07
5.19985e-08
3.09576e-08
1.30178e-07
5.03754e-08
6.57085e-08
9.83333e-08
6.04519e-09
1.34684e-08
6.55232e-08
-9.73212e-09
6.83166e-08
-2.00327e-08
4.74481e-08
-2.49707e-08
-2.49186e-07
4.66522e-08
3.97283e-08
4.91238e-08
3.88613e-08
3.18689e-09
6.00421e-09
1.95186e-09
1.30903e-09
-1.32826e-08
1.53296e-10
-3.46547e-10
1.64224e-09
3.03324e-12
1.35242e-09
4.73926e-16
1.58659e-18
4.58199e-09
4.58199e-09
4.27949e-18
4.72912e-16
4.75261e-16
4.73114e-16
-6.09348e-25
5.29258e-23
-4.70942e-23
2.62625e-21
2.65e-21
2.37564e-21
3.29548e-21
2.84381e-26
1.68364e-26
6.72013e-27
1.30769e-28
9.29347e-29
3.24007e-30
6.21676e-32
2.13437e-32
4.27007e-32
3.15034e-35
3.07608e-34
7.99445e-36
5.14001e-39
5.06428e-38
6.7869e-39
1.18831e-42
7.01081e-42
2.61459e-42
4.2815e-46
1.55176e-45
1.76697e-45
1.62218e-49
5.25899e-49
3.2069e-48
6.12556e-53
8.56963e-53
1.54648e-51
2.2965e-56
6.77192e-56
-1.06136e-53
8.5051e-60
8.12168e-60
-2.75129e-58
3.10134e-63
3.51121e-63
-1.09721e-60
1.11511e-66
1.05047e-66
-5.47375e-67
3.8995e-70
1.32e-70
-2.83921e-67
1.30609e-73
-3.94089e-76
2.86939e-71
4.26994e-77
1.47335e-78
-1.60475e-74
1.42354e-80
2.22606e-82
9.12153e-78
4.36155e-84
2.01047e-84
2.98221e-80
6.86369e-88
-1.54176e-87
3.60906e-85
1.96413e-91
-2.78817e-91
1.14045e-87
1.4953e-94
7.91963e-96
-3.46232e-89
-3.33355e-99
-3.17503e-98
6.9544e-96
1.21901e-100
-4.77971e-103
2.84704e-96
8.548e-104
3.61842e-104
-2.64215e-101
1.1546e-107
-2.10709e-107
8.38933e-102
2.45846e-110
1.94439e-112
1.61973e-105
4.13246e-113
-2.1107e-114
4.63562e-108
8.9089e-117
3.08527e-118
-8.67071e-112
1.59763e-119
2.78918e-121
1.09465e-114
7.39838e-123
7.43967e-125
1.54729e-118
1.8089e-126
3.24828e-128
2.4229e-121
2.60031e-129
6.38256e-132
3.66293e-126
1.88755e-131
1.33222e-133
3.94013e-130
6.38023e-135
-7.96953e-136
3.27609e-130
1.07622e-138
1.17742e-140
8.86032e-135
2.57992e-142
2.52562e-144
-2.38082e-137
8.43626e-146
2.38674e-147
6.3113e-142
3.90825e-149
-9.0186e-151
-9.61453e-147
8.02918e-153
-1.76912e-152
4.67121e-150
7.37862e-154
-2.42756e-155
4.35327e-153
5.55012e-159
-2.94642e-153
4.73538e-08
4.21771e-08
7.34666e-08
4.63906e-08
3.03857e-08
3.83333e-08
5.45588e-09
-8.60016e-08
-4.30048e-08
-4.60077e-08
-4.56646e-08
-4.39744e-08
4.34736e-08
1.12428e-07
4.80837e-08
2.0939e-08
3.28166e-08
4.41515e-08
3.91054e-08
3.6385e-08
3.59769e-08
3.48152e-08
3.32277e-08
3.79715e-08
3.64584e-08
-1.65508e-08
-1.86366e-07
1.22056e-07
-1.33704e-07
5.0711e-09
-2.98061e-08
-3.46886e-08
5.92499e-08
4.55272e-08
6.29861e-08
5.27627e-08
5.47935e-08
5.10546e-08
3.95488e-08
-8.00865e-09
-1.22273e-08
-2.80468e-09
7.35063e-10
2.18667e-08
-1.62149e-10
4.1503e-11
-2.47003e-08
7.08004e-11
-2.46894e-08
9.36658e-22
-2.40638e-20
-1.68375e-20
6.01668e-19
-6.45619e-19
3.02322e-18
-3.30079e-18
-8.21996e-19
-9.58104e-19
-1.88786e-18
-9.57882e-19
-2.24025e-26
-4.61136e-24
-1.71817e-26
9.16756e-28
-1.46401e-27
-4.37339e-29
5.55051e-30
-1.03444e-28
2.39616e-31
7.56658e-34
-1.92172e-31
5.99569e-34
6.35168e-38
-2.84578e-35
3.69986e-38
1.71885e-41
-4.52189e-39
5.19886e-41
6.24757e-45
-1.09216e-42
4.476e-44
2.34839e-48
-4.01718e-46
1.68748e-47
8.81453e-52
-7.43351e-50
-1.0955e-49
3.29348e-55
-1.09e-53
-1.19097e-53
1.22138e-58
-8.23917e-57
-8.52713e-56
4.46034e-62
-3.25959e-60
-5.82358e-59
1.60424e-65
-9.02145e-65
-2.36684e-62
5.69884e-69
-9.45882e-70
-1.01162e-65
1.97224e-72
-3.0523e-71
-3.66654e-69
9.56868e-76
2.01591e-76
2.26573e-72
6.28064e-79
-3.15234e-79
-4.31861e-76
1.16397e-82
-8.89234e-83
2.49818e-79
3.34667e-86
1.69598e-85
2.99559e-82
1.04486e-89
-3.39498e-90
-1.27855e-84
3.58911e-93
-2.776e-91
-4.97419e-88
4.06377e-95
-4.57858e-95
2.6848e-91
2.87605e-97
4.53162e-99
5.22235e-96
2.26736e-101
-2.64444e-101
1.20529e-98
4.49471e-105
-3.65155e-104
-6.75126e-101
4.01212e-108
-8.70236e-108
-1.42083e-105
1.27657e-110
-1.08285e-111
1.5319e-107
1.64879e-114
4.98655e-114
1.594e-109
1.08886e-117
-7.39615e-118
-1.90952e-113
1.75142e-121
-1.22769e-121
5.18901e-117
1.52681e-124
4.61597e-124
1.21022e-123
6.00483e-127
3.66076e-128
3.12941e-123
8.63294e-130
-1.92843e-130
2.45903e-126
8.55218e-133
2.98576e-133
-4.44218e-129
1.03767e-136
5.95835e-137
1.79024e-134
2.70236e-140
-1.38921e-140
-9.71644e-139
8.98961e-144
-3.5624e-143
5.49582e-141
1.12586e-146
-2.5287e-146
-4.98613e-144
6.00071e-149
-3.29534e-149
4.44062e-145
8.42875e-152
-8.39452e-152
-4.52855e-150
1.26764e-153
-2.64635e-155
-5.72965e-151
-2.00153e-157
4.12229e-155
9.59627e-11
6.20741e-08
2.20925e-08
1.05858e-08
-2.98482e-08
-2.7312e-08
4.87336e-08
-3.07808e-08
5.44663e-08
-2.85122e-08
-2.47466e-09
3.38063e-08
5.50706e-08
-3.48627e-08
5.95445e-08
-4.61947e-08
1.65601e-09
4.46003e-08
4.61995e-08
4.78923e-08
5.08325e-08
1.7809e-07
5.80691e-08
-9.83895e-08
1.82995e-07
3.54055e-09
-2.48817e-09
7.65987e-09
-2.96852e-08
-8.4708e-08
-4.1527e-08
-2.93703e-08
-4.19966e-08
3.21597e-08
-1.31158e-07
4.7338e-08
-1.76915e-07
-2.22017e-09
-4.26611e-09
-1.40971e-08
-1.98265e-09
-4.43134e-08
-4.34224e-08
-4.06831e-08
-4.61847e-08
3.14571e-09
-5.86005e-09
5.12487e-09
1.28945e-11
-4.88527e-09
-6.55638e-13
3.37513e-15
1.79728e-08
8.94438e-14
1.7973e-08
-1.96669e-23
2.9874e-22
-1.3115e-19
-2.28981e-19
1.12272e-19
2.27877e-19
-8.04707e-26
-7.43369e-26
4.81315e-27
1.26844e-29
8.38209e-29
3.50329e-31
3.11421e-32
-1.27235e-32
1.49175e-36
-8.62547e-36
3.53916e-40
1.92369e-39
1.26821e-43
2.1743e-42
4.61394e-47
7.51752e-45
1.65738e-50
5.40596e-50
5.87539e-54
-5.54938e-52
2.05479e-57
-8.91631e-55
7.03265e-61
-3.05191e-58
2.26874e-64
-4.74439e-61
6.97412e-68
5.80728e-64
1.92388e-71
-4.56309e-68
5.13789e-75
-6.4195e-74
1.23938e-78
1.31591e-74
-2.73884e-82
1.52321e-77
-2.71274e-85
1.77184e-80
4.96533e-88
-7.32623e-84
2.06401e-90
2.30852e-86
2.03959e-94
-1.89687e-90
1.68331e-97
-3.96951e-94
6.59002e-100
-4.88396e-97
2.48602e-103
1.1205e-100
7.94151e-107
-9.07522e-103
1.70821e-110
3.6324e-107
1.85017e-113
4.07022e-108
3.45203e-116
2.30958e-111
1.76992e-119
9.94182e-117
6.93629e-122
2.67688e-119
3.84979e-126
3.17672e-127
1.0717e-129
-2.89315e-125
1.1797e-132
1.40756e-132
6.41325e-135
1.27693e-132
7.2931e-139
3.52481e-134
1.16133e-141
-2.87383e-138
8.10408e-145
1.50526e-140
3.34453e-148
1.70086e-143
1.39472e-151
8.6766e-148
-1.3371e-154
1.64394e-149
1.70475e-153
1.74819e-07
1.72481e-07
-1.83378e-07
-7.3127e-08
-1.6623e-09
-7.20586e-08
-6.40265e-08
-4.79599e-08
3.04999e-08
-3.67505e-08
-7.41695e-09
6.00154e-08
-9.71912e-09
3.61756e-08
-3.86381e-08
6.39266e-08
4.1678e-08
2.53368e-08
1.4095e-07
-2.11426e-07
-1.75122e-08
7.166e-09
-1.38086e-07
2.4132e-09
6.7008e-10
2.98974e-09
2.08377e-09
-3.09477e-08
-2.08263e-09
4.87596e-10
-1.38449e-09
3.39004e-08
2.22405e-12
-2.63839e-15
4.32447e-17
-4.88114e-16
2.19161e-12
1.9006e-12
2.06487e-12
-7.22807e-15
-6.94735e-15
-3.76587e-15
-3.79086e-15
1.28889e-22
-3.22772e-20
-3.65838e-22
-5.12593e-19
5.36975e-19
-5.1428e-19
3.51263e-19
1.88756e-25
-9.31347e-24
1.57119e-25
1.33045e-26
-1.78303e-26
5.16532e-30
5.72873e-28
-5.06675e-28
1.69647e-30
1.61672e-30
-2.61052e-30
5.47569e-33
3.11693e-34
-1.91361e-33
5.77299e-36
5.71837e-38
-3.53195e-37
1.02927e-38
3.43223e-41
-1.23361e-40
2.2377e-42
2.31034e-44
-4.45965e-44
-1.56652e-45
1.48175e-47
-2.17857e-47
-5.90321e-50
9.38715e-51
-5.46162e-51
2.33046e-51
5.9203e-54
-8.38218e-54
-1.66214e-54
3.71294e-57
-7.92986e-58
5.67948e-58
2.3102e-60
-2.10695e-60
-5.79019e-61
1.42384e-63
-5.28029e-64
-7.20003e-64
8.70006e-67
5.96984e-67
-2.27611e-67
5.24671e-70
4.10117e-70
-2.46272e-71
3.11433e-73
-2.82622e-74
3.17587e-74
1.81902e-76
3.58933e-77
1.47089e-76
1.03652e-79
6.23261e-80
7.45351e-81
5.70863e-83
-2.19374e-83
2.39072e-83
2.98158e-86
-7.71708e-88
-2.72241e-86
1.43689e-89
-2.93946e-90
5.30913e-90
5.88497e-93
8.31899e-93
6.42648e-94
1.47755e-96
-2.92243e-96
1.07922e-96
-6.37975e-100
-2.90443e-99
-2.68575e-99
-1.50239e-102
8.30864e-102
-1.75655e-101
-1.70731e-105
-1.03638e-105
-5.15195e-106
-1.59499e-108
1.44854e-108
2.08209e-108
-1.35816e-111
-5.5454e-112
-1.03025e-111
-1.09636e-114
3.5068e-117
-9.0492e-116
-8.52754e-118
9.29745e-118
-2.02667e-123
-6.46187e-121
5.98827e-123
-3.96267e-122
-4.80038e-124
-2.46369e-125
1.69323e-124
-3.50603e-127
9.55962e-130
1.03511e-129
-2.53305e-130
-2.65756e-131
2.29405e-131
-1.80879e-133
-5.12869e-134
-2.13902e-139
-1.27732e-136
-2.26042e-139
7.29146e-139
-8.94288e-140
-2.40082e-140
-4.10636e-140
-6.21394e-143
-2.01117e-143
-4.09402e-143
-4.29045e-146
6.93699e-148
1.8278e-148
-3.11568e-149
5.46678e-151
-7.44264e-150
-1.52818e-153
-1.59887e-153
8.38662e-09
-2.96138e-07
-2.64694e-07
5.2363e-08
6.57039e-08
1.5002e-08
-8.39518e-09
-4.92086e-08
-1.01092e-08
-3.61665e-08
-3.97423e-08
-3.30353e-09
3.89212e-09
-5.68587e-08
3.46904e-09
3.88571e-08
-4.71986e-09
2.61979e-09
-2.69317e-10
-7.89629e-07
7.41819e-07
-1.95034e-07
-1.9205e-07
-3.76374e-07
6.4874e-10
2.19648e-08
-2.04969e-09
1.6291e-08
9.73914e-08
1.49331e-08
2.76672e-09
6.33552e-09
4.97956e-10
1.69307e-09
-2.60637e-08
1.58235e-13
-5.13172e-15
3.00482e-14
-3.49948e-14
8.32943e-15
4.33866e-15
8.31829e-21
-6.67855e-18
8.84578e-21
-1.57667e-18
7.43574e-18
-2.30291e-18
7.86158e-18
-5.29675e-18
-5.79598e-18
-5.29437e-18
7.19024e-25
-5.04524e-22
-1.17071e-25
-2.28108e-27
-9.10878e-25
8.16676e-29
2.84078e-29
-5.85939e-27
5.52718e-31
4.25718e-32
-4.68485e-31
3.42976e-34
6.67169e-36
-1.2124e-34
6.31348e-37
2.66999e-39
-4.1781e-38
4.98026e-41
1.8357e-42
-1.79508e-41
3.40488e-44
1.25151e-45
-7.28214e-45
-5.87406e-46
8.23966e-49
-3.86216e-48
6.39172e-50
5.38621e-52
-1.70649e-51
7.24585e-53
3.51353e-55
-5.06174e-55
-3.26199e-55
2.28399e-58
-2.55117e-58
-6.02922e-60
1.4786e-61
-2.20399e-61
8.3596e-62
9.52019e-65
-5.59892e-65
4.21043e-65
6.103e-68
1.03139e-67
-3.45399e-69
3.89612e-71
-1.55637e-71
-5.16308e-72
2.46856e-74
-8.36065e-75
5.21509e-75
1.55075e-77
-5.8839e-78
3.1758e-78
9.67031e-81
-4.52714e-81
1.74796e-80
5.97045e-84
-2.64234e-84
-9.47847e-85
3.64952e-87
-2.27481e-87
-4.44861e-88
2.20068e-90
2.97586e-90
-1.09054e-90
1.31123e-93
-2.34993e-94
2.27942e-94
7.61152e-97
-1.6105e-97
4.12586e-98
4.29967e-100
-5.1922e-101
1.61217e-100
2.35089e-103
-4.42115e-103
1.36549e-102
1.21382e-106
1.56142e-107
-5.24445e-107
5.69974e-110
1.22344e-109
-1.08527e-109
2.19691e-113
1.91918e-113
4.85285e-113
3.79568e-117
-1.69016e-116
6.03659e-117
-4.61226e-120
-6.93785e-119
1.47518e-119
-7.8205e-123
1.42692e-122
9.60831e-124
-8.30664e-126
-1.27932e-125
1.13373e-125
-7.54553e-129
1.08936e-128
7.82317e-129
-6.31224e-132
2.14033e-132
-3.43852e-135
-5.04277e-135
1.84436e-135
-2.75959e-135
-3.90622e-138
-8.1294e-138
-5.73926e-138
-2.94396e-141
5.94753e-143
-2.89252e-141
-2.18147e-144
-6.5883e-144
-1.9654e-144
-1.58724e-147
5.52408e-148
1.06265e-147
-1.26795e-150
1.48135e-150
-9.75096e-151
3.66853e-155
1.72425e-157
-1.84771e-07
-1.90183e-07
4.63121e-08
2.13661e-08
-2.07579e-07
-1.13226e-08
-2.91103e-07
2.17221e-08
1.89064e-08
2.1991e-08
1.83041e-08
-1.14721e-08
6.96626e-07
8.09379e-09
1.99822e-07
-4.19382e-07
2.29573e-08
2.73649e-09
4.41686e-07
2.89187e-08
4.97758e-07
9.69652e-08
4.98793e-07
-8.50522e-10
-2.15491e-07
-2.23959e-08
3.87717e-08
-2.06591e-08
-2.82603e-08
-6.43879e-08
-2.4379e-08
-3.06516e-08
1.38868e-08
2.02085e-07
2.01351e-08
2.05995e-08
2.42565e-08
2.12823e-08
5.06246e-08
1.10882e-10
-1.81621e-08
6.04919e-09
6.6577e-09
-4.53967e-08
-1.59793e-10
2.91079e-11
4.13472e-11
-4.62713e-11
-1.747e-11
3.05899e-11
6.65742e-18
-5.49687e-18
1.35318e-18
-4.69343e-18
6.31239e-19
1.07431e-17
7.87606e-18
3.26309e-17
1.61382e-23
-5.24714e-21
1.29815e-22
-5.25726e-20
-5.45081e-20
-5.5238e-20
-5.46824e-20
1.43068e-24
-1.96108e-24
1.60278e-26
7.45255e-27
-5.15362e-28
-2.52509e-31
4.91243e-31
-4.65914e-30
4.19208e-33
8.74419e-35
-1.01328e-33
-2.74368e-36
5.99091e-38
-3.22586e-37
-1.0867e-41
3.98844e-41
-1.36101e-40
-1.42537e-43
2.60564e-44
-6.32295e-44
-3.58281e-46
1.69821e-47
-2.28369e-47
5.70331e-49
1.10457e-50
-1.39543e-50
6.09101e-51
7.16251e-54
4.44683e-54
-4.78461e-54
4.64125e-57
-3.07572e-57
-3.04239e-59
3.00397e-60
-1.85505e-60
9.80598e-61
1.94054e-63
-7.50872e-64
7.8919e-65
1.2519e-66
-1.24685e-66
1.08048e-67
8.05854e-70
-9.14634e-71
1.03195e-70
5.17192e-73
2.476e-73
6.81126e-74
3.31484e-76
-1.14385e-76
-1.57763e-78
2.12037e-79
-1.96599e-80
1.49931e-79
1.35215e-82
5.76693e-83
-1.50495e-83
8.61279e-86
4.28533e-86
3.62312e-86
5.47817e-89
-3.47634e-89
-1.60513e-89
3.47105e-92
6.96057e-93
2.19707e-95
2.19467e-95
1.38879e-96
5.91959e-99
1.38129e-98
5.51894e-99
6.46725e-100
8.644e-102
9.60271e-103
3.12548e-102
5.38904e-105
-3.55582e-106
-1.0922e-105
3.34656e-108
-8.58127e-109
-1.37265e-109
2.06607e-111
1.46023e-112
8.91257e-113
1.26878e-114
-5.69472e-115
2.77319e-115
7.73178e-118
1.81931e-118
5.06701e-119
4.66966e-121
7.88779e-121
9.5826e-121
2.78978e-124
1.56187e-124
2.46787e-124
1.65006e-127
-1.39702e-127
3.18656e-128
9.65702e-131
-2.34573e-130
1.59156e-133
5.56105e-134
-8.49994e-134
1.41294e-134
3.12564e-137
7.28524e-138
-8.81934e-137
1.70522e-140
1.78356e-140
-2.13782e-140
8.9059e-144
5.20657e-144
1.72983e-143
4.35475e-147
1.02686e-147
8.37916e-147
4.01365e-152
6.42934e-150
-2.13972e-149
5.84284e-154
-2.82856e-153
-3.91907e-07
1.38813e-08
4.83802e-08
-3.3439e-08
1.69622e-08
-5.31355e-07
-4.81216e-07
3.69371e-08
-4.22084e-07
-3.08243e-08
-4.03982e-08
-4.169e-08
-2.08761e-08
7.24994e-08
-4.01657e-08
-3.42103e-07
-3.17369e-08
-3.12296e-07
1.37362e-08
-3.07965e-08
-2.16743e-08
3.44212e-08
-1.95916e-07
-1.41521e-07
1.9888e-08
1.77481e-08
5.31463e-09
-4.06227e-09
-1.26887e-08
-1.54115e-08
-1.71198e-08
1.5674e-08
-3.13601e-07
6.12484e-09
2.15264e-09
-1.91574e-08
-1.20181e-07
-1.73658e-08
-5.19246e-08
2.9106e-09
-1.87674e-08
8.31383e-09
8.79107e-10