/*--------------------------------*- C++ -*----------------------------------*\
| =========                 |                                                 |
| \\      /  F ield         | OpenFOAM: The Open Source CFD Toolbox           |
|  \\    /   O peration     | Version:  5.0                                   |
|   \\  /    A nd           | Web:      www.OpenFOAM.org                      |
|    \\/     M anipulation  |                                                 |
\*---------------------------------------------------------------------------*/
FoamFile
{
    version     2.0;
    format      ascii;
    class       volScalarField;
    location    "2.5";
    object      p_rgh;
}
// * * * * * * * * * * * * * * * * * * * * * * * * * * * * * * * * * * * * * //

dimensions      [1 -1 -2 0 0 0 0];

internalField   nonuniform List<scalar> 
9851
(
111.573
109.639
107.06
35.8395
116.424
104.29
97.1748
92.2919
89.5092
86.8647
84.3079
81.7966
79.3192
76.8929
74.4807
72.0982
69.7307
67.3978
65.0878
62.8007
60.5226
58.2619
56.0313
53.7916
51.5779
49.3844
47.189
44.9935
42.8155
40.667
38.5124
36.3821
34.28
32.1698
30.0528
27.9668
25.933
23.935
21.9445
19.9477
17.9788
16.0551
14.1322
12.1834
10.2614
8.38667
6.51463
4.63475
2.77684
0.928287
107.336
107.845
130.646
125.131
93.7173
97.9062
95.9568
91.4521
89.0241
86.6009
84.1581
81.7095
79.2894
76.8702
74.4611
72.0905
69.7224
67.4051
65.1053
62.8029
60.5255
58.2628
56.02
53.79
51.5634
49.3578
47.1746
44.9953
42.8287
40.6707
38.5282
36.3968
34.2784
32.1644
30.0573
27.9734
25.9287
23.9191
21.9264
19.9462
17.9842
16.0589
14.1408
12.2019
10.2682
8.37509
6.49887
4.63036
2.77413
0.927532
91.4763
100.477
118.353
109.974
96.8241
93.7247
94.0244
91.1966
88.4906
86.3558
84.0216
81.6223
79.2247
76.8395
74.4494
72.0719
69.7333
67.4303
65.1254
62.8036
60.5296
58.2664
56.0141
53.7864
51.5678
49.3576
47.1658
45.0011
42.8347
40.6728
38.5329
36.3961
34.2588
32.1518
30.0639
27.9879
25.929
23.91
21.923
19.9476
17.9911
16.0551
14.1246
12.2031
10.2783
8.37335
6.49587
4.63352
2.78166
0.928134
104.247
132.51
106.416
89.0601
89.9357
91.9018
93.732
91.1173
88.4699
86.3561
84.0067
81.6386
79.2203
76.8271
74.4481
72.0767
69.7329
67.4206
65.1018
62.8058
60.5366
58.2657
56.0178
53.7879
51.578
49.3674
47.1641
45.0062
42.8307
40.6633
38.5332
36.3916
34.2528
32.146
30.0719
28.0048
25.9349
23.9059
21.9242
19.9567
18.0006
16.045
14.1075
12.1904
10.2852
8.37637
6.49654
4.64072
2.78689
0.923612
92.1358
91.5587
109.765
90.9276
86.2196
93.0619
94.5469
91.4272
88.7019
86.4929
84.0775
81.6603
79.2451
76.8393
74.4658
72.0915
69.7484
67.4141
65.0817
62.8053
60.5405
58.265
56.0207
53.7902
51.5867
49.3824
47.1746
45.0021
42.8183
40.6559
38.5266
36.3819
34.2491
32.144
30.0726
28.0136
25.9449
23.9108
21.9281
19.9642
17.9973
16.0297
14.086
12.1784
10.2817
8.37771
6.50447
4.65498
2.79478
0.921344
90.0032
101.833
132.01
118.309
90.2611
96.5523
96.4845
92.4174
89.1125
86.7271
84.2107
81.7391
79.2978
76.8735
74.4905
72.1085
69.7633
67.4205
65.081
62.8018
60.5403
58.2625
56.0226
53.8015
51.593
49.3987
47.1859
44.9971
42.8112
40.6449
38.5172
36.3746
34.241
32.1451
30.0753
28.0149
25.9551
23.9202
21.9309
19.9639
17.9904
16.0173
14.0734
12.1698
10.2766
8.38183
6.51995
4.67967
2.80583
0.924583
87.0953
87.4563
105.67
109.252
113.276
99.7578
98.0019
93.1948
89.4249
86.8863
84.3309
81.8187
79.3617
76.9174
74.5075
72.1206
69.77
67.4336
65.0866
62.7888
60.5242
58.2613
56.0225
53.8103
51.6001
49.3952
47.1915
44.993
42.8126
40.6571
38.5158
36.3638
34.2345
32.1518
30.0786
28.0093
25.9596
23.9335
21.9319
19.956
17.9836
16.0085
14.0696
12.1669
10.2722
8.38345
6.52613
4.67862
2.80929
0.932881
98.8017
106.598
95.6985
100.506
100.133
100.241
97.6329
93.1264
89.5095
86.9719
84.3895
81.8616
79.3904
76.9351
74.4983
72.131
69.7673
67.4252
65.1037
62.7848
60.517
58.2573
56.0212
53.8121
51.5996
49.4013
47.1937
44.9913
42.8229
40.6623
38.5117
36.3609
34.2385
32.1583
30.0766
27.9988
25.9595
23.9436
21.9381
19.9518
17.9794
16.0216
14.0822
12.1718
10.2713
8.38572
6.52453
4.66777
2.80824
0.937621
98.7057
95.6
115.212
99.8397
109.133
98.9387
97.2535
92.4284
89.7269
87.0469
84.4422
81.8961
79.4005
76.937
74.511
72.1303
69.7434
67.4065
65.092
62.7918
60.5101
58.251
56.0258
53.8079
51.6029
49.4013
47.1909
44.9898
42.817
40.662
38.5
36.3613
34.2577
32.1631
30.0692
27.9873
25.9546
23.9498
21.9425
19.9491
17.9771
16.0276
14.0951
12.1713
10.2669
8.38701
6.51723
4.65624
2.79525
0.938117
96.2184
95.4736
96.7418
105.303
109.783
94.4602
96.9763
92.5676
89.7271
87.0094
84.409
81.8606
79.3575
76.9182
74.4994
72.1099
69.7385
67.4025
65.0863
62.7963
60.5112
58.2535
56.0295
53.7974
51.5921
49.3985
47.1927
44.9923
42.816
40.6639
38.5035
36.3684
34.2734
32.1707
30.0584
27.9733
25.9428
23.944
21.9451
19.9475
17.9784
16.0456
14.1156
12.1742
10.2606
8.3899
6.51909
4.64485
2.78169
0.928527
111.096
107.804
120.423
116.037
115.68
104.109
97.1667
92.2927
89.5092
86.8647
84.308
81.7966
79.319
76.893
74.4807
72.0978
69.7306
67.3978
65.0879
62.8004
60.5225
58.2619
56.0312
53.7914
51.5779
49.3844
47.1889
44.9935
42.8152
40.6667
38.5123
36.3821
34.2801
32.1697
30.0528
27.9668
25.933
23.935
21.9445
19.9476
17.9787
16.0552
14.1324
12.1835
10.2614
8.38696
6.51454
4.63473
2.77681
0.928355
107.37
105.669
98.0756
107.091
120.606
97.788
95.922
91.4524
89.024
86.6009
84.1581
81.7094
79.2894
76.8702
74.461
72.0903
69.7224
67.4053
65.1052
62.8028
60.5255
58.2628
56.0197
53.7899
51.5635
49.3578
47.1745
44.9953
42.8286
40.6707
38.5287
36.3969
34.2784
32.1644
30.0573
27.9733
25.9287
23.9191
21.9263
19.9463
17.9842
16.0589
14.1407
12.2016
10.2682
8.37506
6.4988
4.63047
2.7743
0.927485
93.3033
96.0505
127.223
82.2781
95.8307
93.72
94.054
91.1953
88.492
86.3556
84.0216
81.6223
79.2247
76.8395
74.4494
72.0718
69.7332
67.4301
65.1255
62.8036
60.5294
58.2664
56.014
53.7863
51.5678
49.3574
47.1658
45.0011
42.8346
40.6729
38.5325
36.396
34.2589
32.1518
30.064
27.9879
25.9289
23.91
21.923
19.9476
17.9912
16.0552
14.1245
12.2029
10.2783
8.37332
6.49584
4.63359
2.78167
0.928128
97.8171
132.068
104.079
89.2842
89.9447
92.2699
93.7318
91.1166
88.4703
86.3555
84.0068
81.6385
79.2202
76.8271
74.448
72.0767
69.7328
67.4205
65.1017
62.8057
60.5366
58.2657
56.0178
53.7881
51.5776
49.3672
47.1642
45.0063
42.8309
40.6631
38.533
36.3916
34.2528
32.146
30.072
28.0045
25.9347
23.9059
21.9242
19.9568
18.0005
16.045
14.1073
12.1905
10.2852
8.37636
6.49644
4.64071
2.78688
0.923467
87.9941
91.4281
101.02
87.8283
83.1285
93.0643
94.5113
91.418
88.7023
86.4929
84.0776
81.6603
79.245
76.8392
74.4659
72.0915
69.7484
67.4141
65.0817
62.8054
60.5405
58.2647
56.0202
53.7903
51.5863
49.3824
47.1747
45.0021
42.8178
40.6558
38.5267
36.3819
34.249
32.1439
30.0727
28.0135
25.9449
23.9108
21.9281
19.9643
17.9973
16.0294
14.086
12.1784
10.2816
8.37769
6.50441
4.65492
2.79476
0.921388
91.1985
101.815
101.054
112.589
100.525
98.4389
96.4342
92.4087
89.1129
86.7269
84.2106
81.7389
79.298
76.8735
74.4905
72.1085
69.7633
67.4206
65.0809
62.8018
60.5402
58.2624
56.0226
53.8015
51.593
49.3988
47.1858
44.9969
42.8112
40.645
38.5172
36.3741
34.2408
32.1458
30.0753
28.0147
25.9552
23.9202
21.9309
19.9639
17.9903
16.0168
14.0734
12.1698
10.2765
8.38182
6.51992
4.67968
2.80556
0.924555
87.1006
59.1997
97.6618
105.086
106.151
99.2967
97.9846
93.1881
89.4255
86.8861
84.3309
81.8187
79.3616
76.9173
74.5074
72.1206
69.7699
67.4335
65.0866
62.7888
60.5243
58.2613
56.0225
53.8103
51.6
49.3951
47.1914
44.993
42.8126
40.657
38.516
36.3635
34.2344
32.1518
30.0786
28.0093
25.9596
23.9335
21.9318
19.956
17.9835
16.0083
14.0696
12.1669
10.2721
8.38343
6.5262
4.6787
2.80917
0.932994
97.7319
105.807
101.551
101.372
100.315
100.223
97.5933
93.124
89.5102
86.9717
84.3895
81.8616
79.3904
76.9351
74.4983
72.131
69.7676
67.425
65.1039
62.7848
60.517
58.2573
56.0212
53.8121
51.5995
49.4013
47.1941
44.9913
42.8227
40.6627
38.5116
36.3609
34.2385
32.1582
30.0765
27.9987
25.9594
23.9435
21.9381
19.9517
17.9793
16.0216
14.0822
12.1718
10.2712
8.3857
6.52452
4.66775
2.80816
0.937782
98.4354
79.1844
104.539
101.425
106.961
98.8768
97.1575
92.4288
89.7269
87.0469
84.4422
81.8962
79.4005
76.9369
74.5109
72.1305
69.7436
67.4064
65.092
62.7919
60.5101
58.2511
56.0258
53.8078
51.6028
49.4013
47.1908
44.9895
42.8171
40.6621
38.5
36.3612
34.2581
32.163
30.0691
27.9874
25.9548
23.9497
21.9423
19.9491
17.9772
16.0276
14.0951
12.1712
10.2669
8.38698
6.51718
4.65621
2.79532
0.938117
96.4294
96.803
104.676
102.884
117.17
94.7184
96.9478
92.5683
89.7271
87.0093
84.4091
81.8601
79.3574
76.9184
74.4993
72.1101
69.7385
67.4021
65.0864
62.7963
60.5112
58.2535
56.0295
53.7973
51.5921
49.3987
47.1927
44.9923
42.816
40.6639
38.5033
36.3684
34.2736
32.1707
30.0583
27.9734
25.9428
23.944
21.9451
19.9475
17.9784
16.0455
14.1156
12.1741
10.2605
8.38992
6.51896
4.64483
2.78175
0.928512
113.043
107.068
118.413
120.793
112.301
104.314
97.1708
92.2923
89.5091
86.8647
84.308
81.7968
79.3188
76.893
74.4807
72.0976
69.7306
67.3977
65.088
62.8002
60.5225
58.2624
56.0312
53.7913
51.5779
49.3843
47.1887
44.9935
42.8151
40.6667
38.5124
36.3821
34.28
32.1694
30.0527
27.9667
25.9329
23.9349
21.9445
19.9475
17.9785
16.0552
14.1324
12.1836
10.2614
8.38697
6.5144
4.63465
2.77671
0.928319
107.803
103.678
98.2104
125.619
111.299
97.3364
95.9364
91.4517
89.0239
86.6008
84.158
81.7094
79.2893
76.8701
74.461
72.0901
69.7223
67.4053
65.1051
62.8027
60.526
58.2628
56.0195
53.7894
51.5636
49.3577
47.1744
44.9952
42.8288
40.6706
38.5288
36.3969
34.2782
32.1644
30.0573
27.9732
25.9286
23.9195
21.9261
19.9453
17.9842
16.0594
14.1405
12.2012
10.2682
8.3751
6.49846
4.6304
2.77442
0.927297
94.5528
118.803
98.4883
65.0019
95.0167
93.76
94.0432
91.1967
88.492
86.3557
84.0215
81.6222
79.2246
76.8394
74.4493
72.0718
69.7331
67.4298
65.1255
62.8035
60.5292
58.2663
56.0138
53.7862
51.5679
49.3572
47.1658
45.001
42.8346
40.673
38.5325
36.3957
34.2589
32.1519
30.064
27.9879
25.9287
23.91
21.9229
19.9474
17.9911
16.0552
14.1243
12.2027
10.2783
8.37325
6.49573
4.63358
2.78164
0.927825
101.351
82.8298
135.879
131.629
89.9081
92.1874
93.731
91.1183
88.4698
86.3553
84.0066
81.6383
79.2202
76.827
74.448
72.0766
69.7328
67.4203
65.1017
62.8055
60.5368
58.2656
56.0177
53.7881
51.5773
49.3667
47.1643
45.0062
42.8308
40.663
38.5329
36.3915
34.2527
32.1459
30.072
28.0044
25.9346
23.9059
21.9243
19.9568
18.0005
16.045
14.1071
12.1907
10.2853
8.37628
6.49635
4.64066
2.78676
0.923136
85.4138
90.1056
111.111
99.5136
81.2872
93.1102
94.5266
91.4218
88.7014
86.4933
84.0775
81.6595
79.2446
76.8392
74.4658
72.0914
69.7483
67.414
65.0816
62.8054
60.5405
58.2639
56.0202
53.7903
51.5861
49.3824
47.1747
45.002
42.8176
40.6556
38.5267
36.3818
34.2489
32.1439
30.0726
28.0135
25.9453
23.9108
21.9281
19.9646
17.9972
16.0289
14.0861
12.1784
10.2815
8.37762
6.50456
4.65484
2.7945
0.921298
90.2927
91.3856
106.001
66.9652
96.3647
98.3427
96.4254
92.4121
89.112
86.7272
84.2104
81.7388
79.298
76.8734
74.4905
72.1084
69.7632
67.4206
65.0807
62.8017
60.5402
58.2622
56.0225
53.8015
51.593
49.3987
47.1857
44.9968
42.8111
40.6457
38.5175
36.3739
34.2407
32.1456
30.0755
28.0147
25.9551
23.9202
21.9307
19.9638
17.9902
16.0164
14.0734
12.1699
10.2763
8.38174
6.51992
4.67972
2.80512
0.924515
89.1752
198.971
99.0875
106.076
105.709
99.1504
97.9618
93.1889
89.4249
86.8862
84.3308
81.8186
79.3616
76.9173
74.5074
72.1205
69.7699
67.4333
65.0866
62.7889
60.5244
58.2612
56.0224
53.8102
51.5999
49.395
47.1913
44.9932
42.813
40.6571
38.516
36.3634
34.2344
32.1517
30.0785
28.0091
25.9595
23.9334
21.9318
19.956
17.9834
16.0082
14.0696
12.1669
10.2719
8.38336
6.5263
4.67854
2.80878
0.932956
99.1468
111.129
106.238
104.184
90.5125
100.746
97.6095
93.1239
89.5097
86.9718
84.3894
81.8615
79.3903
76.935
74.4982
72.1309
69.7678
67.4247
65.104
62.7848
60.5169
58.2573
56.0213
53.812
51.5995
49.4013
47.194
44.9911
42.8227
40.6627
38.5116
36.3608
34.2384
32.1582
30.0765
27.9989
25.9594
23.9434
21.938
19.9517
17.9791
16.0215
14.0821
12.1718
10.2711
8.38563
6.52447
4.66771
2.80817
0.937795
105.711
93.6463
124.101
99.9103
102.659
97.2207
97.1803
92.4285
89.7272
87.0469
84.4422
81.8961
79.4004
76.9369
74.5109
72.1307
69.7437
67.4059
65.092
62.7919
60.51
58.2514
56.0258
53.8078
51.6024
49.4013
47.1905
44.9895
42.8171
40.6622
38.4999
36.3611
34.2586
32.163
30.069
27.9874
25.9548
23.9495
21.9422
19.949
17.9772
16.0276
14.095
12.171
10.2668
8.38691
6.51708
4.65614
2.79527
0.938026
96.2927
100.014
102.85
100.684
113.528
95.1452
96.9424
92.5678
89.727
87.0092
84.4091
81.86
79.3571
76.9184
74.4993
72.1103
69.7384
67.4014
65.0865
62.7962
60.511
58.2534
56.0294
53.7973
51.5921
49.3986
47.1926
44.9923
42.8159
40.6639
38.5031
36.3686
34.274
32.1706
30.0577
27.9735
25.9428
23.9439
21.9451
19.9474
17.9784
16.0454
14.1155
12.1739
10.2605
8.38987
6.51878
4.6447
2.78175
0.928444
99.9537
99.0988
97.8507
104.118
99.8414
99.0583
97.7368
97.2288
94.4049
94.8272
97.6901
97.1387
94.3738
94.8464
94.4688
92.1451
93.4699
93.7209
94.4748
92.1489
93.4343
93.3923
92.5877
93.9191
92.2743
93.3831
92.5747
93.9794
94.2285
96.7161
95.7918
93.0526
94.2465
96.7225
95.7167
96.5485
99.8854
97.8439
96.5817
96.5094
100.028
97.8421
98.2034
99.8022
97.9354
99.4113
98.3949
99.8177
97.9172
97.8577
98.8928
97.4625
100.049
97.8747
98.82
97.4649
97.9075
95.6984
97.4012
98.8613
97.9276
95.3494
97.4006
98.1796
112.927
98.5619
95.2596
98.0456
106.675
98.5352
99.8301
99.065
97.7262
104.048
99.8352
98.8897
97.7457
97.1386
94.3664
94.8491
97.2826
97.1054
94.3784
94.8481
94.473
92.1548
93.5212
93.7498
94.4676
92.124
93.4086
93.4603
92.5678
93.8094
92.2032
93.415
92.5482
93.8819
94.2241
97.4847
95.7531
93.0925
94.2194
95.7916
95.7628
96.4977
99.9299
97.874
98.4027
96.5472
99.8431
97.8401
98.3586
99.7952
97.8881
99.1423
98.154
97.9687
97.8882
97.8588
98.6804
97.4671
100.496
97.8822
98.3162
97.5066
97.9294
95.1609
97.3979
99.473
97.9294
95.5425
97.4033
98.0512
104.314
98.4741
94.7769
98.0517
105.045
98.572
99.8478
98.991
97.7551
104.244
99.9487
98.171
97.8687
97.1224
94.3571
94.8422
97.7072
97.2257
94.3614
94.8294
94.4673
92.1404
93.5465
93.7732
94.4578
92.2802
93.4823
93.4913
92.5516
93.7604
92.2027
93.4103
92.6522
93.8461
94.2912
95.8744
95.8085
93.2512
94.2076
98.1079
95.7553
96.5288
99.8545
97.8929
98.0556
96.5257
100.048
97.85
98.2373
98.0922
97.8716
99.2495
98.1126
98.0764
97.8758
97.9226
98.3598
97.5122
100.257
97.8604
101.362
97.5148
97.9281
97.379
97.4029
99.7153
97.9103
96.6956
97.399
98.0621
105.037
98.5797
91.6549
98.1997
105.002
98.6106
107.669
98.759
100.304
116.765
106.314
98.4611
99.8249
101.279
102.404
102.869
104.132
102.93
101.271
102.412
95.131
96.5524
94.2755
97.1702
95.1408
96.5467
94.2845
94.9808
96.1173
93.7044
92.9273
95.0185
93.4336
93.7255
95.9661
97.118
96.3551
98.252
97.1213
96.0079
95.9633
93.658
94.524
92.9095
95.9235
93.6662
94.4161
92.9173
92.8298
88.2988
91.0667
97.1868
92.7564
88.4302
91.0916
93.4257
94.056
93.2378
93.7245
94.0476
93.2099
93.4297
92.3268
93.6376
91.7155
94.0518
92.334
93.6023
91.7188
92.1119
92.3188
92.2431
89.9164
91.9154
92.3223
92.2477
91.6452
92.7763
94.384
91.9603
92.5838
94.388
92.5049
91.8056
94.4809
92.4019
93.7374
91.8059
94.2925
92.36
93.3279
75.301
91.279
83.4634
93.3172
73.2198
90.0243
93.9033
93.3646
93.6643
93.0466
93.3386
93.5244
93.908
92.6615
95.8398
93.903
94.5731
92.5697
95.7786
93.8058
113.066
99.6499
99.0987
89.6906
103.942
101.817
98.1464
98.0857
97.5389
98.846
96.6187
97.5331
98.6439
98.0465
94.2499
97.6706
94.5601
96.5295
94.1644
97.6328
94.4711
100.875
106.472
99.7776
102.626
102.852
105.942
101.831
98.9609
98.7843
100.99
99.5967
98.7253
100.96
98.973
94.7341
97.7391
94.4501
98.0044
94.7005
97.7438
94.4533
101.632
98.6069
99.5939
101.946
99.3246
99.2822
100.484
96.2402
98.7712
98.7676
100.116
98.7676
98.5808
96.2275
94.4651
96.7738
94.2014
97.6037
94.4707
96.8848
94.2089
100.209
129.526
92.67
107.246
102.618
131.5
95.4004
97.1831
98.3843
95.94
98.9342
98.2802
95.8746
97.1908
94.8479
96.4581
94.5425
97.1694
94.8574
96.3736
94.5518
67.4678
126.337
121.739
114.775
76.1809
108.856
129.96
103.63
97.2239
107.823
94.3165
97.2523
107.559
103.624
94.9852
97.4073
94.9962
96.9464
94.9944
97.4079
95.0047
106.132
107.881
99.7214
114.681
105.918
106.476
99.3642
101.269
102.431
102.696
104.108
101.272
102.678
102.44
95.1403
96.5446
94.2831
97.1671
95.1402
96.5459
94.2829
95.579
93.9541
93.7872
99.5363
95.1834
94.0212
93.7932
95.9961
97.093
95.9556
97.2748
95.9629
97.1105
95.9098
93.6648
94.4071
92.916
95.9414
93.6642
94.403
92.9162
92.7605
88.458
91.1272
95.022
93.0178
88.0574
91.0745
93.4279
94.0385
93.2175
93.7257
93.4519
94.0413
93.216
92.3331
93.5957
91.715
94.0444
92.333
93.5868
91.7146
91.992
92.4472
92.2873
89.9891
92.1044
92.4386
92.1615
93.0549
92.6714
94.5699
92.1574
92.8943
92.7028
94.9753
91.8036
94.2709
92.3582
93.7299
91.8045
94.2982
92.3562
93.0493
73.3961
93.8542
82.0899
92.5027
68.9405
87.9342
93.919
93.3468
93.5624
93.0717
93.9257
93.3597
93.6259
92.5637
95.8804
93.797
94.5447
92.5629
95.8403
93.7976
106.039
103.947
99.3535
97.5739
103.537
101.538
102.618
97.8582
97.4274
101.456
101.384
97.881
97.4074
100.205
94.1563
97.6629
94.4642
96.4276
94.1568
97.6661
94.4643
101.018
113.574
102.816
103.752
100.643
101.634
100.904
98.8943
98.7624
100.276
99.2208
99.1692
98.7447
100.084
94.697
97.7442
94.4497
97.9405
94.6954
97.7437
94.4498
99.3401
103.064
99.4315
95.3015
101.399
102.345
100.329
96.6629
98.7104
99.1965
100.371
96.3099
98.6728
98.1018
94.4671
96.8774
94.2067
97.6018
94.4675
96.9172
94.2071
98.4268
133.593
95.8541
108.841
98.7043
139.407
98.2466
97.2181
98.2652
96.3521
98.9015
97.2158
98.2807
96.5849
94.857
96.3706
94.5506
97.1645
94.8569
96.3682
94.5505
69.2865
114.477
93.2293
113.275
55.5335
101.634
118.776
103.654
97.1967
105.611
94.3349
103.665
97.2355
104.62
94.9941
97.3984
95.0031
96.9432
94.9938
97.3892
95.0028
106.512
103.632
100.15
112.525
106.072
102.07
99.0642
101.26
102.456
102.597
104.023
101.262
102.586
102.464
95.1404
96.5503
94.2841
97.1759
95.1306
96.5534
94.2749
95.0537
95.4605
93.7169
89.2832
95.0746
97.9496
93.7555
95.9777
97.0852
95.9521
97.3424
96.0459
97.1173
95.7938
93.6649
94.4157
92.918
95.951
93.6559
94.5196
92.9108
93.0364
88.4462
91.0413
94.7615
93.0437
88.4319
91.1091
93.3997
94.0515
93.2217
93.7715
93.437
94.0423
93.225
92.3341
93.5999
91.7186
94.0136
92.327
93.6193
91.7154
92.8997
92.6624
92.2275
90.3162
92.1178
92.541
92.379
93.0242
92.646
95.1046
92.1691
92.955
92.6434
95.0511
91.8073
94.3081
92.3604
93.7273
91.8068
94.4174
92.4002
92.5369
68.2644
87.7731
86.8765
90.5372
237.308
90.6297
93.8945
93.2967
93.6921
93.196
93.8932
93.2854
93.7012
92.5682
95.9073
93.8075
94.5447
92.6635
95.8618
93.8972
91.4066
98.9989
103.584
104.132
86.6092
98.0617
100.586
97.9699
97.3101
98.4847
98.3041
98.0319
97.2536
99.2631
94.1641
97.7031
94.4709
96.4547
94.2531
97.7244
94.5586
101.146
100
100.379
99.3829
100.651
101.876
102.257
98.9801
98.7563
99.898
99.2641
98.9765
98.7547
100.407
94.6967
97.7459
94.4528
97.9115
94.732
97.738
94.4502
102.038
104.019
106.256
92.0907
105.747
107.19
110.313
101.57
98.6012
110.129
106.421
98.6907
98.6734
97.968
94.4707
96.8348
94.2093
97.6368
94.4647
96.7365
94.2
99.1739
147.538
94.6209
103.407
101.097
97.5546
97.5268
98.3239
98.2296
97.1023
99.798
97.3063
98.804
105.317
94.857
96.3722
94.5517
97.2709
94.8475
96.4576
94.5426
97.3828
114.822
112.398
113.398
97.3018
107.337
114.04
103.795
97.3301
108.643
102.822
103.695
97.3348
111.273
94.994
97.3887
95.0044
96.97
94.9845
97.395
94.9957
100.567
101.72
99.2487
99.8947
99.1915
100.555
101.742
99.909
100.56
98.4386
99.1403
100.592
98.4427
99.9073
99.5189
98.8312
98.1965
97.7939
98.7819
98.2147
99.5023
101.277
104.109
102.421
102.754
102.752
101.275
102.415
100.574
99.8569
101.772
99.1518
99.1606
100.574
101.761
99.905
99.0545
100.485
98.4366
100.491
98.4419
99.9015
99.5297
97.7591
98.7443
98.2363
98.7584
98.2274
99.5353
96.0169
97.0753
96.1085
97.1188
97.0537
96.0917
96.0017
95.2861
95.1458
94.5738
94.3528
95.1447
94.5687
95.3385
95.3103
95.407
94.6786
94.829
95.4313
94.6797
95.3026
95.97
97.35
97.0919
95.9878
97.1069
95.9845
95.972
96.0235
97.1078
97.0757
96.0672
97.0541
96.0776
96.0219
95.262
94.3616
95.1416
94.584
95.1474
94.6135
95.3022
95.306
94.8396
95.4535
94.6768
95.4452
94.6828
95.3018
93.876
94.2401
94.0396
94.4758
94.2343
94.0476
93.869
92.857
92.5003
92.6314
92.1487
92.4962
92.6358
92.8907
93.6558
93.7209
93.1225
93.4473
93.695
93.1393
93.871
93.4736
93.7138
94.0604
93.252
94.0646
93.2141
93.4224
93.8273
94.4756
94.2583
94.0389
94.3227
94.0504
93.8182
92.8368
92.1442
92.4797
92.6464
92.4818
92.6409
92.8768
93.5065
93.5336
93.7142
93.1497
93.7653
93.2377
93.6321
93.0282
93.045
93.5029
93.4022
92.9671
93.5234
93.1642
92.8958
92.1411
93.251
92.5764
92.1417
93.0853
93.2219
93.2216
93.6442
93.3909
93.9593
93.616
93.309
93.3189
94.1919
91.9531
92.673
94.3227
92.5655
94.2595
93.194
93.5065
93.4965
92.9885
93.5467
93.1
93.5322
93.0777
93.0778
92.5925
92.2425
93.0338
92.1584
93.0379
92.9417
93.2238
93.9515
93.5741
93.3361
93.7712
93.3104
93.2179
94.3774
93.8054
94.6722
94.217
93.7927
94.6753
94.5631
94.7329
95.3623
95.9915
96.7369
95.3845
95.9793
94.8072
95.0146
95.214
95.7964
95.7804
95.1896
95.7896
95.1211
93.9252
93.0514
93.3546
93.5468
93.3508
93.537
93.9157
94.3746
94.2873
93.776
94.6346
93.791
94.8097
94.384
94.698
96.7544
95.5106
95.8754
95.4362
96.0763
94.7078
95.0171
95.9164
95.1371
95.7581
95.3986
95.8119
95.0316
97.4084
96.8999
97.0984
96.5151
96.8851
97.0976
97.5126
98.9744
102.132
98.5455
99.9719
101.164
98.5497
99.1636
98.1439
97.6394
98.3175
97.8493
97.5986
98.2622
98.1495
97.9965
96.7747
97.5008
98.4917
97.691
98.5002
97.8814
97.4119
96.5655
96.9415
97.0622
96.9964
97.217
97.4196
98.6448
100.004
101.768
98.5295
101.33
98.5775
98.6725
98.1782
97.8651
97.624
98.3031
97.5959
98.2737
98.1325
98.4282
98.5502
98.0263
98.2758
98.4077
98.0404
98.4136
98.3622
97.7114
98.5067
99.5632
97.7337
98.4952
98.3587
98.3024
98.1125
98.2167
97.9039
98.1282
98.2158
98.2923
99.0616
99.5761
98.7548
100.417
98.6961
100.526
98.828
98.4229
98.1338
98.5581
98.0002
98.563
97.9981
98.4081
98.3315
99.4095
97.5662
98.513
97.7403
98.4987
98.3487
98.2961
97.9025
98.1302
98.2106
98.1945
98.2157
98.2998
97.5786
98.2134
97.3815
97.8609
98.213
97.3545
97.7194
99.6016
97.8975
97.6434
98.8691
97.9721
97.6446
99.6315
98.5341
97.8347
96.0808
97.4655
97.786
95.68
100.817
96.2103
100.046
98.7258
98.5927
98.7477
98.5667
96.1969
97.9755
97.9279
98.2084
97.3673
98.2117
97.3728
97.9406
99.4838
98.9278
97.7581
97.6619
97.7253
97.6528
99.2797
101.301
97.4627
97.7822
96.1347
97.7734
95.6716
98.1264
97.4813
98.0893
97.3528
97.9185
98.0955
97.3756
97.471
97.4959
99.836
96.4158
96.7461
98.8919
96.426
97.6359
97.5162
97.6585
97.1999
97.3991
97.6744
97.207
97.5103
97.1753
99.0118
98.2657
96.0328
98.2611
96.2978
97.2004
97.4898
97.9238
98.1057
97.3854
98.1101
97.3804
97.4959
97.6884
94.8198
98.0182
96.437
98.2823
96.4908
97.2657
97.5141
97.4019
97.6971
97.2062
97.6882
97.2051
97.5176
101.363
98.283
99.6337
98.0497
98.2663
99.5071
101.312
102.364
114.925
100.524
106.725
118.166
102.373
100.447
101.908
99.5095
99.7893
98.5218
99.4546
101.982
99.8026
103.635
96.441
97.1896
106.412
97.2336
107.239
103.651
101.405
98.0255
98.3015
99.4116
98.2823
99.4478
101.442
102.555
104.448
110.087
100.546
110.144
102.626
100.482
101.886
98.5307
99.2764
99.6154
99.3796
101.921
99.6119
100.575
101.775
99.1436
99.8325
100.575
99.1453
101.772
99.8989
100.474
98.4326
99.0247
99.9
100.455
98.4313
99.5344
98.7373
98.2372
97.7285
99.5371
98.7386
98.2322
101.267
104.174
102.452
102.618
102.644
101.265
102.448
100.572
99.8331
101.766
99.1467
99.1462
100.568
101.77
99.8986
99.1181
100.249
98.4287
100.597
98.4299
99.9013
99.5309
97.7368
98.7427
98.219
98.7405
98.2242
99.5283
96.0272
97.0827
96.059
97.1263
96.0233
97.0925
96.0554
95.3272
95.1373
94.5872
94.3857
95.2819
95.1353
94.5858
95.3029
95.4582
94.6759
94.8491
95.2999
95.4603
94.6773
95.9945
97.2794
97.0911
95.8792
97.1097
95.8862
96.0059
96.0278
97.1066
97.1036
96.0569
97.1033
96.0555
96.0281
95.3012
94.3683
95.1358
94.6025
95.1329
94.613
95.3313
95.3038
94.8502
95.4572
94.6729
95.4608
94.6793
95.3041
93.754
94.2204
94.0338
94.4703
93.7526
94.2152
94.03
92.8215
92.4327
92.6313
92.1636
92.8246
92.4084
92.625
93.5965
93.7136
93.1234
93.4209
93.7469
93.709
93.106
93.4393
93.7418
94.0284
93.2128
94.0404
93.2069
93.4159
93.8344
94.4693
94.1358
94.0222
94.2198
94.0255
93.7774
92.806
92.1304
92.399
92.6264
92.4046
92.6463
92.7964
93.6714
93.5562
93.6959
93.1222
93.7325
93.1172
93.674
93.1502
92.9766
93.5389
93.3944
93.1513
92.9732
93.4924
92.9343
93.2822
93.0436
92.5565
92.9613
92.7358
93.0237
93.232
93.622
93.3299
93.8063
93.2252
93.5995
93.3364
92.9794
92.1553
92.6427
95.1648
92.6223
95.1777
93.0865
93.1579
93.4194
92.9556
93.4734
92.9438
93.5068
93.1609
92.9694
92.5533
92.6426
93.033
92.7021
93.0268
92.9944
93.2388
93.9544
93.616
93.36
93.5956
93.3606
93.3028
94.3859
93.7788
94.6612
94.2052
94.3833
93.757
94.6117
94.6887
95.6295
95.8868
96.6575
94.7145
95.7584
95.8189
95.0467
95.1475
95.7621
95.7317
95.0336
95.1264
95.7599
93.9179
93.0705
93.3196
93.6651
93.3277
93.6512
93.8939
94.389
94.2079
93.7668
94.6157
93.7571
94.6304
94.3857
94.6754
96.6361
95.7353
95.8432
95.8227
96.0568
94.6616
95.0325
95.7008
95.1182
95.8032
95.1697
95.7709
95.0308
97.4784
96.9226
97.0584
96.498
97.4316
96.9278
97.0826
98.5633
101.949
98.5091
99.6716
98.8087
101.836
98.5525
98.1284
97.6271
98.2923
97.8575
98.1334
97.5746
98.2814
97.8235
98.4021
97.3394
98.4814
97.3786
99.5565
98.2541
97.4337
96.5001
96.9617
97.0795
96.9383
97.0565
97.449
98.5938
100.075
101.823
98.605
101.797
98.5909
98.64
98.1235
97.8415
97.6039
98.2551
97.5935
98.2833
98.0916
98.45
98.4343
98.0519
98.1531
98.4257
98.4573
98.0298
98.3806
97.5874
98.543
99.2289
98.3698
97.2941
98.5635
98.3214
98.1493
98.2032
97.8661
98.3331
98.1139
98.2034
98.9248
99.1132
98.7565
99.8787
98.7451
99.9492
98.9656
98.4627
98.0387
98.3431
98.0071
98.575
98.011
98.4816
98.5121
102.085
101.465
98.5785
104.109
98.5871
98.47
98.3504
97.8757
98.1017
98.198
98.1577
98.2052
98.3407
98.1081
98.2054
97.3726
97.8558
97.8681
98.199
97.3885
98.7995
99.4324
97.6409
101.986
99.0837
97.2344
97.6461
98.9808
97.8315
96.8362
97.4723
100.139
97.7922
103.069
96.5556
100.455
98.6417
98.9838
98.6249
99.1725
98.7631
97.8887
97.8478
98.1745
97.4139
98.1859
97.3978
97.9545
99.1326
101.721
98.6323
97.7191
97.2624
97.5971
99.1953
99.0378
97.493
97.8037
101.741
97.7954
101.554
98.0182
97.5253
98.1091
97.3897
97.9294
97.5075
98.1183
97.3917
97.3081
98.8464
96.4317
95.2376
97.2639
99.0658
96.4678
97.5394
97.7042
97.2067
97.399
97.5273
97.6962
97.2061
97.2111
98.8973
98.2527
96.7084
98.2911
97.4477
97.218
97.5418
97.9289
98.1589
97.3911
98.1171
97.3926
97.5544
97.5344
95.4784
99.9712
96.4229
99.225
96.4565
97.5191
97.5507
97.4028
97.6873
97.2045
97.6867
97.2054
97.5573
101.394
98.3059
99.3844
98.0451
101.442
98.3008
99.3753
102.757
111.089
100.547
105.095
102.694
112.796
100.62
102.046
99.2901
99.8059
98.4548
101.981
99.4365
99.8043
103.651
94.5524
97.326
103.545
97.3182
105.651
103.698
101.34
98.0514
98.2901
99.4386
98.2997
99.4195
101.31
102.794
104.884
109.326
100.83
109.124
102.8
100.766
102.001
98.5295
99.464
99.7358
99.5156
101.952
99.7357
100.56
101.761
99.156
99.8616
100.564
99.1631
101.755
99.9165
101.279
98.4325
99.0003
99.9091
101.228
98.4376
99.5149
98.7485
98.2116
97.7789
99.5262
98.7727
98.2011
101.259
104.084
102.464
102.606
102.594
101.251
102.47
100.554
99.8955
101.727
99.2515
99.1941
100.546
101.743
99.917
98.2522
100.511
98.4286
100.675
98.4352
99.9129
99.5004
97.8141
98.8431
98.1705
98.8015
98.1872
99.4856
96.0316
97.09
96.0633
97.1475
96.0279
97.0847
96.075
95.3418
95.1284
94.6166
94.35
95.3934
95.1208
94.6201
95.3119
95.4508
94.6748
94.8332
95.3057
95.4392
94.6717
96.102
97.3198
97.1246
96.0595
97.1228
95.7816
96.1018
96.0316
97.1606
97.0747
96.1116
97.0746
96.0888
96.0209
95.4619
94.3593
95.1807
94.6095
95.1097
94.6112
95.4433
95.3169
94.8297
95.4073
94.6804
95.4222
94.6752
95.3118
93.8018
94.2003
94.0261
94.4655
93.7456
94.1591
94.0255
92.7388
92.387
92.618
92.1523
92.8086
92.3928
92.6125
93.6649
93.7082
93.1739
93.4637
93.6868
93.708
93.1141
93.4229
93.7656
94.0715
93.2422
94.0378
93.2378
93.5077
93.9125
94.4644
94.2281
94.0233
94.1644
94.0276
93.8514
92.7275
92.1509
92.41
92.6142
92.4037
92.6092
92.8179
93.7066
93.4589
93.7339
93.1252
93.72
93.1179
93.7298
93.1669
92.9573
93.4698
93.4058
93.1671
93.0109
93.4748
93.0035
92.6551
93.0348
92.5615
92.9658
92.7483
93.0385
93.3195
93.6457
93.3746
93.8271
93.2894
93.6054
93.3782
93.0634
92.1457
92.738
95.7501
92.8308
95.0742
93.0227
93.1975
93.4057
93.074
93.5463
93.0507
93.608
93.1911
93.014
92.5605
92.693
93.0596
92.6426
93.0426
93.1456
93.2987
93.8838
93.6036
93.3936
93.6145
93.382
93.308
94.3925
93.7691
94.6281
94.2031
94.3866
93.7772
94.6215
94.6268
95.986
95.7482
96.2788
94.6392
96.3714
95.7563
95.03
95.1634
95.7977
95.7473
95.0321
95.1344
95.8082
93.8968
93.1674
93.3503
93.6374
93.2821
93.6354
93.9152
94.3926
94.1984
93.7916
94.6513
93.7785
94.6208
94.482
94.6246
98.0025
96.6763
95.9093
96.6024
95.7625
94.6257
95.0493
95.7493
95.1895
95.8098
95.1365
95.8054
95.0464
97.425
96.9562
97.1281
96.5449
97.4195
96.9314
97.0634
98.6471
101.828
98.6099
100.1
98.6134
101.899
98.6084
98.1158
97.5881
98.2539
97.8598
98.1025
97.5956
98.2749
97.9533
98.8024
97.3625
99.075
97.4387
98.8813
97.9501
97.4262
96.5299
96.9578
97.0957
96.9308
97.0649
97.4409
98.5995
100.268
102.57
98.6104
101.771
98.6027
98.6115
98.1149
97.8512
97.6283
98.2736
97.6008
98.2763
98.116
98.4938
98.3245
98.0805
98.0834
98.4883
98.1887
98.0256
98.4569
103.472
98.5751
98.3899
98.6475
103.128
98.5602
98.3511
98.1601
98.2173
97.8887
98.3702
98.0836
98.1988
98.979
99.192
98.744
99.5502
98.7497
99.4361
99.0688
98.5198
98.3447
98.2229
98.0365
98.2765
98.0377
98.5056
98.4167
98.1563
100.326
98.5901
100.172
98.5609
98.4916
98.3562
97.8811
98.1242
98.1976
98.0868
98.1978
98.4152
97.8152
98.1769
97.4471
97.8661
98.4613
98.1546
97.4517
99.904
97.9756
97.6542
98.7186
99.127
98.016
97.6737
97.3665
97.8171
101.045
97.513
98.0251
97.8195
97.6881
100.087
98.84
98.6685
98.0452
98.5206