/*--------------------------------*- C++ -*----------------------------------*\
| =========                 |                                                 |
| \\      /  F ield         | OpenFOAM: The Open Source CFD Toolbox           |
|  \\    /   O peration     | Version:  5.0                                   |
|   \\  /    A nd           | Web:      www.OpenFOAM.org                      |
|    \\/     M anipulation  |                                                 |
\*---------------------------------------------------------------------------*/
FoamFile
{
    version     2.0;
    format      ascii;
    class       surfaceScalarField;
    location    "2.5";
    object      phi;
}
// * * * * * * * * * * * * * * * * * * * * * * * * * * * * * * * * * * * * * //

dimensions      [0 3 -1 0 0 0 0];

internalField   nonuniform List<scalar> 
29467
(
-9.0139e-11
-2.08438e-09
3.83789e-09
-1.43813e-09
5.07136e-09
-3.70393e-09
3.85779e-09
-2.07673e-10
5.41755e-09
-8.32946e-09
9.64011e-10
1.49396e-09
2.94898e-09
2.27591e-09
-8.38194e-09
-1.40213e-09
1.00639e-08
1.76594e-09
3.64353e-09
3.23537e-09
1.04874e-09
-1.5609e-09
-4.108e-09
-7.60426e-10
-8.90809e-10
-2.14277e-10
2.94651e-10
3.00808e-10
7.89752e-10
-5.96494e-11
2.32904e-10
4.39756e-11
-5.13136e-11
-9.50926e-11
-8.60054e-11
5.67239e-12
1.11951e-11
7.94588e-12
3.72715e-12
1.39863e-09
9.03105e-11
-3.69284e-11
-2.68419e-10
-2.57516e-10
-4.48214e-10
-4.37472e-10
1.36885e-09
6.22989e-11
-1.6561e-12
1.36e-09
3.06075e-11
-1.73794e-13
1.35598e-09
1.84429e-11
-5.87994e-13
1.35515e-09
1.05949e-11
3.44599e-13
1.35487e-09
6.24051e-12
4.9919e-13
1.35481e-09
3.77511e-12
-4.96386e-13
1.35466e-09
2.35477e-12
-1.59682e-13
1.35505e-09
8.863e-13
5.94144e-14
1.35498e-09
9.84665e-13
1.34717e-14
1.35466e-09
8.27906e-13
4.68388e-13
1.35478e-09
5.66778e-13
-2.23124e-13
1.35454e-09
1.98865e-13
3.84325e-14
1.35502e-09
4.04078e-13
1.78111e-13
1.3548e-09
-4.88899e-13
3.66796e-13
1.35503e-09
-1.52923e-12
1.07256e-12
1.35454e-09
1.26678e-13
3.55612e-13
1.35455e-09
-6.65544e-13
5.16142e-13
1.35574e-09
-2.47004e-12
1.12381e-13
1.35539e-09
7.80291e-13
-3.99173e-13
1.35544e-09
1.09742e-13
-3.4373e-15
1.35465e-09
1.54548e-12
-3.78697e-12
1.355e-09
1.79027e-13
-7.13424e-13
1.35425e-09
-1.12746e-12
3.86576e-12
1.35465e-09
-1.01685e-12
2.82584e-12
1.35448e-09
-4.07914e-13
1.72524e-13
1.35497e-09
-2.20685e-14
-3.15512e-13
1.35482e-09
-1.24396e-13
-4.64653e-14
1.35472e-09
5.63405e-14
3.05362e-14
1.35424e-09
4.92794e-13
-4.69557e-15
1.35416e-09
5.75842e-13
-6.32987e-13
1.35584e-09
-2.9178e-12
7.43458e-13
1.35509e-09
4.82945e-13
1.09756e-13
1.35481e-09
9.41654e-14
2.72806e-13
1.3552e-09
-2.61088e-14
-1.15906e-13
1.35565e-09
2.4264e-12
-4.66453e-13
1.35428e-09
3.22466e-12
-2.05659e-12
1.35441e-09
-3.26323e-13
-2.21874e-14
1.35463e-09
2.9287e-13
-6.12435e-13
1.35556e-09
-8.27273e-13
-1.73792e-13
1.35512e-09
3.38437e-13
1.25241e-13
1.3545e-09
-7.42838e-14
4.57944e-13
1.28595e-12
-1.13864e-12
7.31456e-10
8.01453e-09
-1.837e-09
-4.50526e-09
-3.30308e-09
-9.50466e-10
1.30865e-10
-3.56344e-10
6.89272e-10
1.57701e-09
-7.96537e-10
9.73832e-10
3.72243e-09
5.47166e-09
-7.91486e-09
-1.53899e-10
-4.88322e-10
-8.14304e-10
2.11965e-09
2.48028e-09
-6.40791e-09
-4.35477e-10
2.24345e-09
1.71152e-09
5.3804e-09
-6.78866e-09
-3.06645e-09
2.76318e-09
-1.94721e-09
1.71762e-09
3.36386e-09
-3.31823e-09
1.83965e-10
-7.72123e-11
-3.2725e-11
-1.21111e-12
9.45585e-11
1.65975e-11
-5.38591e-11
-5.70085e-12
5.21597e-12
2.73247e-11
2.70193e-11
1.33275e-09
1.8303e-11
-3.12816e-11
-2.40315e-10
-2.27351e-10
-4.11191e-10
-3.86371e-10
7.07838e-12
2.28679e-11
5.84806e-12
1.32883e-09
6.81691e-11
-1.92721e-12
1.33863e-09
2.1108e-11
-2.88261e-13
1.3438e-09
1.33395e-11
-6.14256e-14
1.34787e-09
6.56771e-12
-3.87113e-14
1.35043e-09
3.66854e-12
2.09249e-15
1.35225e-09
1.93986e-12
4.76112e-15
1.35355e-09
1.05219e-12
-1.28367e-14
1.35383e-09
7.40831e-13
-1.56321e-13
1.35466e-09
3.16292e-13
-1.90724e-13
1.35428e-09
3.58343e-12
-2.40326e-12
1.35458e-09
3.12019e-13
-6.91021e-14
1.3547e-09
8.13705e-14
-2.58238e-14
1.35484e-09
6.79337e-14
1.71608e-13
1.35482e-09
-4.74591e-14
-4.38263e-13
1.35491e-09
-1.32735e-12
-3.16227e-13
1.35568e-09
4.74254e-13
-1.14337e-12
1.35595e-09
-2.25495e-13
-7.29298e-13
1.35404e-09
-4.41634e-13
-1.33384e-13
1.35444e-09
-5.51082e-14
4.20234e-13
1.35455e-09
3.36423e-14
-5.50938e-14
1.35443e-09
-5.52571e-13
2.20798e-12
1.35399e-09
-4.65063e-13
1.068e-12
1.35447e-09
2.25404e-13
-1.85212e-12
1.3546e-09
5.08685e-13
-1.66164e-12
1.3554e-09
-3.11682e-12
1.89546e-12
1.35541e-09
-2.35388e-12
2.309e-12
1.35507e-09
2.54758e-13
-4.10313e-14
1.35516e-09
4.57215e-14
-8.79231e-14
1.35541e-09
2.25796e-13
1.04965e-14
1.35549e-09
1.20755e-13
3.72866e-13
1.35401e-09
-9.81919e-13
-4.60605e-13
1.35429e-09
3.44457e-13
-1.5156e-13
1.35427e-09
1.41739e-13
-2.67908e-14
1.35377e-09
1.35695e-13
3.38858e-13
1.35459e-09
8.88294e-13
7.10932e-13
1.35602e-09
2.27125e-13
1.56545e-12
1.3556e-09
1.11686e-13
-1.81971e-14
1.35518e-09
-8.08211e-14
7.89999e-13
1.35464e-09
5.26058e-14
-3.39911e-13
1.35486e-09
1.55034e-13
-3.47986e-14
1.35451e-09
8.68961e-13
-5.92357e-13
-2.79483e-13
1.16273e-12
-2.24728e-09
-4.99294e-09
-1.38922e-09
8.6544e-09
-2.15967e-09
1.32227e-09
-4.23329e-09
-3.56303e-09
-3.52977e-09
-3.12467e-09
-2.0841e-09
-2.6508e-08
4.98566e-08
3.91592e-08
-4.51347e-08
8.88206e-10
9.95922e-10
6.48272e-10
3.09753e-10
-2.84215e-09
8.16827e-10
-7.86726e-10
6.87262e-11
2.32846e-09
-2.42728e-09
-1.04517e-09
3.0911e-09
1.5411e-09
1.03197e-08
-3.98593e-09
-2.2156e-09
-3.28881e-09
-4.41639e-09
-2.66909e-11
-5.01047e-11
-8.0139e-11
4.24753e-11
1.14462e-10
-4.44701e-11
1.0922e-11
8.38997e-12
-4.84801e-11
7.36383e-11
-2.64781e-11
1.6545e-10
-1.75416e-12
1.83774e-12
-2.63326e-11
-4.70964e-11
-4.73218e-11
1.27437e-09
-1.90299e-11
-1.52732e-11
-2.2026e-10
-2.24732e-10
-3.57796e-10
-3.69102e-10
1.31243e-09
-1.48728e-11
-2.0757e-12
1.33142e-09
-6.43071e-12
7.83557e-13
1.34197e-09
-4.13088e-12
1.41179e-13
1.34758e-09
-2.01984e-12
6.43535e-14
1.35065e-09
-1.1564e-12
1.55113e-14
1.35239e-09
-7.32789e-13
1.94736e-14
1.35371e-09
-6.39996e-13
4.52972e-14
1.35399e-09
9.76626e-14
-9.51184e-14
1.35496e-09
5.84927e-13
2.00644e-12
1.35433e-09
7.82034e-13
1.32622e-13
1.35463e-09
-2.79516e-13
3.89004e-14
1.35516e-09
-3.29836e-13
-1.60603e-13
1.35532e-09
-2.11304e-13
-1.57805e-14
1.35503e-09
3.23347e-13
-1.38295e-12
1.35465e-09
1.70577e-14
8.14445e-13
1.35448e-09
1.13483e-12
-1.2094e-12
1.35432e-09
-3.84812e-13
8.71495e-14
1.35435e-09
-6.59871e-14
-3.95344e-14
1.35424e-09
-3.35268e-14
1.62417e-13
1.35458e-09
4.62722e-13
-1.37145e-12
1.35553e-09
9.25784e-13
-2.35532e-12
1.35527e-09
4.78977e-13
-8.18159e-15
1.3561e-09
6.28369e-13
-9.64667e-13
1.35478e-09
3.61256e-14
-1.83719e-12
1.35462e-09
2.21117e-13
-2.42324e-12
1.35473e-09
2.06005e-13
-6.98121e-14
1.35485e-09
-1.50971e-13
6.61324e-14
1.35501e-09
2.41238e-14
3.40389e-14
1.35497e-09
-6.61011e-14
2.26642e-13
1.35469e-09
-3.37262e-13
-3.75974e-13
1.35468e-09
5.53293e-14
3.02562e-13
1.35389e-09
8.74296e-13
5.12894e-14
1.3541e-09
-1.18457e-13
3.99983e-14
1.35422e-09
5.16224e-13
2.50713e-13
1.3562e-09
-2.10158e-12
3.44269e-13
1.35552e-09
7.85417e-13
4.7918e-15
1.35525e-09
-3.86074e-14
2.2731e-13
1.35462e-09
2.63482e-13
4.25421e-13
1.35423e-09
5.80601e-13
-3.61367e-14
1.35466e-09
3.94192e-13
4.13613e-14
-1.3467e-12
5.59631e-13
-1.556e-09
-2.7452e-10
-2.03524e-10
2.059e-09
2.51344e-09
1.66706e-09
-4.71009e-09
2.2506e-09
-1.72101e-09
-1.69723e-09
1.07467e-09
-1.74218e-09
-2.3053e-10
2.59526e-09
7.28431e-10
2.45158e-09
-5.57923e-10
-8.68278e-10
1.05094e-09
-2.92234e-09
-1.82037e-09
9.05982e-10
-9.00747e-10
1.90635e-09
2.63268e-11
-2.35429e-10
-1.86078e-09
-3.61084e-10
1.82941e-09
6.27885e-10
1.55979e-10
7.23685e-11
1.853e-11
-3.2105e-10
7.41709e-11
-2.68147e-11
1.69622e-11
-5.92651e-12
-6.98201e-11
8.5599e-11
-2.95463e-11
1.80043e-10
-1.56545e-11
-2.16329e-12
-3.18567e-11
-5.57691e-11
-6.10365e-11
1.59837e-11
1.3127e-09
-4.52655e-11
-2.12738e-11
-2.36291e-10
-2.40134e-10
-3.90031e-10
-3.98736e-10
1.33086e-09
-2.99973e-11
-3.03556e-12
1.34005e-09
-1.61407e-11
5.20833e-13
1.3457e-09
-9.53266e-12
-2.61032e-13
1.34921e-09
-5.587e-12
3.66969e-14
1.35144e-09
-3.4042e-12
-6.62398e-16
1.35279e-09
-2.10851e-12
1.0887e-14
1.35343e-09
-1.30544e-12
-2.18299e-15
1.35408e-09
-9.21618e-13
3.36782e-13
1.35441e-09
-1.81433e-13
4.08555e-13
1.35524e-09
7.56112e-14
-1.4704e-13
1.3552e-09
-2.81861e-13
1.46764e-14
1.35504e-09
-2.59159e-13
6.53742e-14
1.35491e-09
-1.46196e-13
4.52422e-14
1.35482e-09
-1.81221e-13
5.69457e-13
1.3551e-09
1.2124e-13
-4.01826e-13
1.35512e-09
-7.89821e-14
1.17118e-12
1.35475e-09
8.71001e-13
-8.97348e-13
1.35477e-09
-1.26288e-13
1.85083e-14
1.35486e-09
6.61288e-13
-8.00853e-13
1.35546e-09
1.18136e-12
-1.33475e-12
1.35471e-09
3.47195e-15
1.65251e-12
1.3547e-09
5.76883e-13
-9.99029e-14
1.35472e-09
6.16742e-13
-1.6086e-14
1.35473e-09
-1.65834e-14
3.25216e-14
1.35484e-09
1.10077e-13
-1.18336e-14
1.35494e-09
-7.65575e-16
1.02009e-13
1.35484e-09
-1.19297e-14
-4.49006e-14
1.35498e-09
4.71608e-14
-1.73558e-13
1.35491e-09
-1.59527e-13
1.62966e-13
1.3545e-09
-3.17977e-13
3.83377e-13
1.35436e-09
7.00612e-13
-5.0538e-13
1.35516e-09
-8.39478e-14
1.48857e-13
1.35511e-09
-1.09805e-12
1.03096e-12
1.35519e-09
7.20549e-13
-2.82742e-13
1.3545e-09
-1.72099e-12
3.07645e-13
1.35507e-09
2.89915e-13
-8.26769e-14
1.35519e-09
6.2949e-14
-2.20987e-13
1.35526e-09
1.76427e-12
-1.56501e-12
1.35396e-09
1.90212e-12
-2.19711e-14
1.35438e-09
1.10812e-13
-1.3858e-13
-1.85673e-12
6.09326e-13
-1.74138e-09
-1.3708e-09
6.20126e-09
-5.45469e-10
-1.20062e-09
-5.93251e-10
-5.58771e-10
-6.72984e-09
-4.77223e-10
7.04227e-09
1.10933e-10
5.38534e-11
1.39674e-09
2.12469e-09
-2.84093e-09
-1.23533e-09
5.54841e-10
-3.8219e-09
2.73536e-09
1.28714e-09
2.26814e-09
-2.65921e-09
1.05868e-09
5.54285e-10
-1.42252e-09
-1.09752e-10
-1.51312e-09
-4.94381e-10
-4.83359e-10
2.60063e-09
1.48764e-10
1.4838e-10
9.28782e-11
-4.55529e-10
6.55075e-11
-9.45702e-11
-1.67628e-11
-1.23746e-11
1.8787e-11
1.04921e-10
-3.92737e-11
1.90024e-10
-2.00808e-11
4.01769e-11
-4.05411e-11
-6.77352e-11
-7.09847e-11
8.41445e-12
1.3481e-09
-5.15988e-11
-1.85288e-11
-2.48124e-10
-2.54942e-10
-4.0314e-10
-4.17035e-10
1.35031e-09
-2.85964e-11
-3.60744e-12
1.35122e-09
-1.77613e-11
7.0635e-13
1.35217e-09
-1.02667e-11
-2.295e-13
1.3532e-09
-6.52951e-12
-1.09273e-13
1.35399e-09
-4.19438e-12
-9.63366e-15
1.35422e-09
-1.99907e-12
-3.6808e-13
1.35459e-09
-1.67246e-12
-2.59317e-14
1.35455e-09
-8.70692e-13
-4.69174e-14
1.3549e-09
-4.93351e-13
-6.68758e-14
1.355e-09
-6.02645e-13
5.48474e-13
1.35489e-09
-3.09496e-13
1.14613e-13
1.35494e-09
-3.93182e-13
5.79452e-14
1.35527e-09
-4.66873e-13
-2.9322e-14
1.35513e-09
-7.6562e-14
1.5965e-14
1.35507e-09
-2.65536e-13
4.273e-13
1.35508e-09
-4.82861e-13
3.68608e-13
1.35519e-09
-3.12845e-13
1.05602e-12
1.35521e-09
-1.50753e-13
-1.2375e-14
1.35503e-09
1.26107e-13
6.95215e-13
1.35428e-09
3.64941e-13
1.55898e-12
1.35493e-09
-1.05774e-12
3.91537e-13
1.35538e-09
2.59785e-13
-1.39148e-13
1.35456e-09
1.58316e-12
-1.63418e-13
1.35465e-09
-1.18738e-13
1.4562e-15
1.35474e-09
8.51129e-14
-7.01423e-14
1.3547e-09
7.2993e-14
-4.494e-14
1.35462e-09
6.58391e-14
-3.86169e-15
1.35458e-09
-9.91991e-14
1.79902e-13
1.35454e-09
4.92309e-14
-1.70807e-13
1.35463e-09
-1.35061e-13
-2.82325e-13
1.35499e-09
1.50619e-13
1.88194e-13
1.35494e-09
4.32374e-13
-4.75249e-13
1.355e-09
4.53698e-13
-1.6091e-12
1.35539e-09
2.2908e-13
1.02753e-13
1.35456e-09
-7.47826e-13
-1.46771e-13
1.3549e-09
3.396e-15
-5.73616e-14
1.35533e-09
-4.34949e-13
6.49283e-14
1.35558e-09
-1.25228e-12
2.76609e-12
1.35397e-09
3.79755e-12
-2.86356e-13
1.35432e-09
-9.38411e-13
7.04895e-13
-2.31179e-13
-8.14451e-13
1.37498e-09
1.22815e-09
-2.65929e-09
8.11197e-11
-1.14118e-10
1.1633e-09
1.97026e-09
-2.93178e-09
-8.76496e-11
4.35067e-10
2.45188e-09
2.09461e-09
-5.06705e-09
8.54905e-11
-1.24158e-09
4.27649e-09
4.82082e-09
-1.84119e-08
6.84582e-10
9.71594e-10
1.19514e-09
9.28912e-10
1.78903e-09
-6.07321e-10
5.59403e-09
1.78676e-10
4.57674e-10
-1.05049e-09
8.57351e-10
-4.43211e-10
-1.48085e-10
-2.47455e-09
7.37581e-10
-2.06089e-10
2.09114e-09
-1.5329e-10
1.93057e-11
1.35905e-12
1.37052e-11
1.1892e-10
-4.94914e-11
2.13409e-10
-1.35603e-11
4.29766e-11
1.75795e-11
-4.84945e-11
-8.03301e-11
-8.20886e-11
1.38404e-09
-2.42807e-11
-2.20099e-11
-2.63073e-10
-2.64451e-10
-4.28642e-10
-4.33185e-10
1.3711e-09
-1.20699e-11
-3.58701e-12
1.36297e-09
-1.02332e-11
6.01071e-13
1.3596e-09
-6.78486e-12
-1.16121e-13
1.35749e-09
-4.56969e-12
1.31176e-13
1.35633e-09
-3.03868e-12
-8.44047e-15
1.35595e-09
-2.02567e-12
3.8871e-13
1.35549e-09
-1.26054e-12
1.08367e-14
1.35534e-09
-7.55757e-13
1.7376e-15
1.35526e-09
-1.1609e-12
7.15584e-13
1.35505e-09
-2.27476e-13
-1.89143e-13
1.35513e-09
-4.52764e-13
3.38206e-14
1.35566e-09
-3.22831e-12
2.28635e-12
1.3552e-09
3.40102e-15
-3.72512e-14
1.35502e-09
6.7308e-14
1.78954e-14
1.3548e-09
-5.95677e-14
-4.09109e-15
1.35438e-09
-1.0589e-13
1.78631e-14
1.35572e-09
1.19715e-12
-2.86773e-12
1.35555e-09
2.39722e-14
-1.8754e-14
1.35556e-09
1.43672e-13
-5.02188e-14
1.35576e-09
2.0205e-13
-4.75975e-14
1.35387e-09
3.57255e-12
-2.75475e-12
1.35403e-09
-8.13758e-13
8.97395e-13
1.35494e-09
1.08349e-13
5.55566e-13
1.35486e-09
1.43916e-13
-1.92083e-13
1.35472e-09
1.8863e-13
2.54882e-14
1.35455e-09
8.52537e-13
-6.18197e-13
1.35463e-09
6.92034e-14
-9.04683e-14
1.3548e-09
-2.91534e-13
1.28142e-14
1.35468e-09
1.41239e-13
2.40158e-14
1.3548e-09
-5.66332e-13
3.05005e-13
1.35524e-09
-1.05078e-12
7.62755e-13
1.35504e-09
2.28966e-13
3.98645e-13
1.3548e-09
6.38298e-13
5.51862e-14
1.35482e-09
2.87997e-13
-8.27256e-14
1.35428e-09
1.37765e-13
-3.40204e-13
1.3542e-09
-8.02281e-14
1.54363e-13
1.35402e-09
-1.43851e-13
-1.05304e-13
1.35383e-09
1.52797e-12
-2.59103e-12
1.35606e-09
1.24856e-12
3.18324e-13
1.35574e-09
-4.42928e-13
-1.8263e-13
-7.34886e-13
1.6518e-12
-2.14206e-10
-4.58774e-09
-2.89019e-09
8.92487e-09
-3.15873e-10
-3.40437e-10
-3.85477e-10
-2.96801e-09
3.47566e-09
-1.52753e-09
-1.02494e-08
-1.23076e-09
-2.19428e-09
-2.26601e-09
2.4328e-07
-2.08836e-07
3.66248e-08
-5.41151e-08
5.66589e-10
9.58331e-11
1.10302e-09
-2.35546e-09
-2.84357e-08
1.94623e-08
1.41979e-08
-4.64031e-09
-7.8016e-10
1.00443e-09
-1.77587e-09
2.7269e-09
-1.17528e-09
1.39261e-12
-6.10088e-10
-9.6037e-10
-1.2514e-09
2.82047e-09
-6.51011e-10
3.53958e-10
-7.62205e-10
9.75302e-10
8.39576e-11
-1.47426e-10
-2.29578e-11
4.23308e-11
-9.13167e-11
2.19369e-10
-4.18928e-11
1.09351e-11
1.98985e-10
3.72241e-12
2.67609e-11
-4.12909e-11
-7.89603e-11
-7.82593e-11
1.38897e-09
3.58685e-12
-2.72785e-11
-2.62971e-10
-2.6037e-10
-4.35089e-10
-4.31131e-10
1.37668e-09
3.03971e-12
-2.80703e-12
1.36785e-09
-1.792e-12
3.87316e-13
1.36301e-09
-1.82e-12
-1.32474e-13
1.36007e-09
-1.64722e-12
-6.616e-16
1.35821e-09
-1.18215e-12
-1.288e-14
1.35704e-09
-8.97895e-13
2.01276e-14
1.35629e-09
-5.28069e-13
-7.30634e-15
1.35589e-09
-3.90264e-13
7.42328e-15
1.35555e-09
-3.87697e-13
-4.73918e-13
1.35582e-09
-1.01563e-12
4.95775e-13
1.35562e-09
1.21847e-13
-4.01388e-13
1.35486e-09
-2.04309e-13
-2.28711e-12
1.35501e-09
-1.75413e-13
4.3358e-15
1.35522e-09
-6.36436e-13
4.72796e-13
1.35519e-09
-4.75451e-14
-9.12067e-16
1.35542e-09
1.02111e-13
-4.56977e-13
1.35448e-09
-5.09688e-13
2.62547e-12
1.35483e-09
-1.9655e-13
-1.41665e-13
1.3552e-09
-3.54695e-13
1.09789e-13
1.35368e-09
4.32668e-12
-2.62126e-12
1.35502e-09
-3.89556e-13
2.61078e-12
1.35513e-09
-3.0269e-13
-6.39732e-13
1.35491e-09
-5.93404e-14
3.76169e-13
1.35481e-09
1.32378e-13
9.785e-14
1.35484e-09
9.54873e-14
6.13172e-14
1.35503e-09
1.4215e-13
5.08931e-13
1.355e-09
1.01782e-13
-1.08535e-14
1.35479e-09
-7.08705e-15
-7.90453e-14
1.35492e-09
-7.34777e-14
8.15392e-14
1.3547e-09
-6.3811e-14
-2.92836e-13
1.35502e-09
2.65746e-14
-1.39864e-12
1.35551e-09
-1.21194e-13
-1.38324e-13
1.35434e-09
1.85065e-12
-5.0453e-14
1.35456e-09
5.08306e-13
-4.40019e-13
1.35415e-09
3.901e-13
1.5245e-13
1.35424e-09
-3.23026e-13
1.55017e-13
1.35408e-09
-4.34284e-15
1.59088e-14
1.35455e-09
-7.04338e-13
1.76916e-12
1.35502e-09
6.68709e-13
1.064e-13
1.35532e-09
-2.3752e-13
-5.10272e-13
-2.70638e-13
-1.11139e-12
2.28459e-10
3.21161e-09
7.30423e-10
-3.97952e-09
2.70733e-09
3.96871e-10
-2.152e-10
-1.2751e-09
-1.61403e-09
-3.90278e-10
1.82009e-09
1.8577e-09
1.74106e-09
-5.02857e-09
1.58629e-09
-2.90938e-09
6.18925e-10
2.41908e-09
-1.71492e-09
-6.19885e-10
2.64331e-09
-1.75535e-09
3.16306e-09
-1.64518e-09
-8.03763e-10
-3.14548e-10
-6.67644e-10
5.5723e-10
1.44399e-09
-4.81383e-10
-2.04056e-10
-1.31578e-09
-4.46843e-11
3.26047e-12
-1.02998e-11
-1.21878e-11
6.39114e-11
-3.3578e-11
-1.3041e-11
1.82166e-10
7.16769e-12
9.92716e-12
-3.23909e-11
-6.14935e-11
-5.87567e-11
1.3609e-09
-2.65508e-11
-2.14868e-11
-2.50535e-10
-2.4463e-10
-4.12618e-10
-4.01487e-10
1.36583e-09
-4.35757e-14
-1.84623e-12
1.36476e-09
-1.41814e-12
6.91288e-13
1.36257e-09
3.56394e-13
2.79473e-15
1.36032e-09
5.35689e-13
4.95118e-14
1.35847e-09
6.52845e-13
-7.8139e-16
1.35758e-09
-1.0152e-13
7.36231e-14
1.35656e-09
4.54447e-13
1.79031e-14
1.35628e-09
-1.29931e-12
1.16099e-12
1.35574e-09
-1.13372e-13
2.2955e-13
1.35557e-09
-7.67221e-13
-1.04584e-13
1.3556e-09
-1.84942e-13
2.50608e-13
1.35532e-09
4.87347e-14
3.28641e-15
1.35512e-09
2.00664e-13
-1.9837e-13
1.35502e-09
-4.18572e-13
-1.39931e-13
1.35513e-09
-1.77327e-13
4.24207e-15
1.35463e-09
-1.34508e-13
7.11324e-13
1.35472e-09
-4.22519e-13
-1.88917e-13
1.35433e-09
2.59333e-14
1.42875e-13
1.35397e-09
3.75157e-15
-1.37765e-14
1.35527e-09
3.19417e-13
2.69105e-12
1.355e-09
6.10867e-13
-7.37733e-13
1.35574e-09
-2.66328e-12
1.60314e-12
1.35554e-09
1.19152e-13
9.27983e-15
1.35466e-09
1.2874e-12
-2.88652e-13
1.35472e-09
-5.85351e-14
8.7036e-14
1.35482e-09
-5.37988e-14
9.23671e-14
1.35499e-09
-2.18016e-13
1.34412e-13
1.35495e-09
-2.94931e-13
3.25071e-13
1.35463e-09
5.60245e-13
-3.16612e-13
1.35489e-09
-2.74704e-13
-5.19523e-14
1.35466e-09
-2.78417e-13
5.28699e-13
1.35411e-09
1.68902e-13
2.54475e-13
1.35507e-09
8.23433e-13
7.07333e-14
1.35453e-09
2.81075e-13
7.6712e-13
1.35484e-09
2.84265e-13
-2.0527e-13
1.35456e-09
9.9364e-14
-1.47146e-13
1.35405e-09
4.66387e-13
3.32447e-14
1.35457e-09
-1.04952e-12
-1.72574e-13
1.35439e-09
5.91598e-13
2.63256e-13
1.35583e-09
-3.5053e-12
1.81971e-12
-3.22737e-13
-5.48757e-13
3.45728e-09
3.67155e-10
-1.33985e-09
-2.29361e-09
-2.76304e-09
1.8067e-09
-1.24748e-09
1.71997e-09
-1.81427e-11
3.47811e-10
-1.2628e-10
2.8047e-10
-3.02755e-10
1.22254e-08
-6.90623e-10
-2.27066e-10
2.72857e-10
-1.1657e-10
-5.60927e-10
-2.70938e-11
8.13117e-10
-1.39199e-10
-8.2263e-10
-1.7939e-09
-2.64269e-10
-1.13818e-08
3.91935e-08
1.98217e-09
-3.81633e-08
5.48962e-11
4.57351e-10
4.89354e-10
4.6368e-10
-1.46528e-09
2.17179e-10
-2.50846e-09
1.84262e-09
4.24541e-10
2.41249e-11
4.4036e-10
-6.23084e-10
5.05614e-10
2.8837e-10
-6.1126e-10
-1.93143e-10
4.95859e-12
9.34154e-12
1.34752e-10
4.4091e-11
1.41842e-09
9.8057e-12
-2.7301e-11
-2.65978e-10
-2.47598e-10
-4.45004e-10
-4.14797e-10
-1.43249e-12
-8.08879e-12
-3.46422e-12
-1.45612e-11
1.38971e-09
4.80944e-12
-2.66234e-12
1.37854e-09
1.12503e-11
-1.40237e-13
1.36947e-09
7.79386e-12
-1.48047e-13
1.36409e-09
5.7788e-12
-4.56788e-14
1.36077e-09
3.90172e-12
-5.80601e-14
1.35883e-09
2.6352e-12
-6.19096e-14
1.35709e-09
1.73499e-12
-1.12565e-13
1.35672e-09
1.92139e-12
-1.11394e-12
1.356e-09
5.94989e-13
-1.19758e-12
1.35578e-09
4.57302e-13
-3.87536e-13
1.35526e-09
-1.35212e-13
-1.32088e-13
1.35503e-09
-2.0425e-13
2.24524e-13
1.35495e-09
6.46213e-14
3.93807e-14
1.35476e-09
4.65047e-13
-1.02666e-13
1.35494e-09
-2.08234e-13
-4.04979e-13
1.35464e-09
1.16561e-13
-2.08444e-14
1.35513e-09
5.39593e-14
-6.95229e-13
1.35526e-09
-6.43124e-13
6.84043e-14
1.3549e-09
8.44541e-13
-4.77864e-13
1.35517e-09
-1.53804e-13
-1.28633e-13
1.35533e-09
1.37041e-13
1.17342e-14
1.35523e-09
8.74854e-14
6.08988e-13
1.35446e-09
-1.61368e-13
-1.74945e-12
1.35444e-09
1.90348e-13
-6.34253e-14
1.35541e-09
1.0354e-12
-7.25631e-13
1.35449e-09
-7.31597e-14
9.28084e-13
1.3547e-09
-2.08958e-14
-2.57992e-13
1.35459e-09
3.28682e-14
-1.42711e-13
1.35456e-09
-1.88281e-14
-2.56505e-13
1.35524e-09
-3.63043e-13
2.38728e-13
1.35478e-09
9.37138e-13
-7.49732e-13
1.35494e-09
-3.88166e-13
-6.06512e-14
1.35542e-09
-4.4272e-13
1.33262e-13
1.35487e-09
2.90865e-12
-1.53703e-12
1.35423e-09
1.31664e-12
-4.00506e-13
1.35422e-09
2.36202e-13
5.31901e-14
1.35492e-09
-9.85935e-13
3.92056e-13
1.35539e-09
-2.00764e-13
1.92785e-13
1.35425e-09
3.94857e-13
-3.03233e-13
1.35458e-09
3.87228e-13
-1.27993e-13
1.35431e-09
9.86338e-13
-4.22207e-12
-1.88034e-12
-2.89524e-14
2.05229e-09
2.78668e-09
-2.76028e-09
-1.88772e-09
-7.27768e-10
-1.64126e-10
2.66146e-10
2.23741e-09
-1.61167e-09
1.27755e-09
-7.69885e-10
-2e-10
-8.16614e-10
5.08946e-10
-6.89173e-11
5.3663e-09
1.66289e-09
-3.72066e-11
-8.55764e-10
-2.83079e-12
-4.21694e-10
1.96364e-08
1.47623e-08
-4.26847e-08
3.76645e-10
5.42209e-10
7.56324e-10
9.32342e-10
-1.17248e-09
3.00384e-09
-6.39223e-10
-5.32064e-10
-6.38864e-10
9.68309e-09
1.6963e-08
3.98768e-09
-2.96058e-08
-2.63495e-09
-3.01592e-10
1.67316e-09
-3.08575e-09
7.717e-10
6.80803e-10
1.81275e-09
4.01415e-11
3.1999e-10
2.0383e-09
-6.42079e-10
-1.14434e-09
-5.71869e-10
-5.87718e-11
3.88362e-12
-5.90777e-12
3.233e-11
2.84659e-11
1.40755e-09
-3.45678e-11
-2.6105e-10
-2.61278e-10
-4.38135e-10
-4.43086e-10
1.38108e-09
4.61542e-13
1.37069e-09
7.58868e-14
1.36414e-09
5.23253e-13
1.36028e-09
-4.82188e-13
1.35822e-09
-5.29878e-13
1.35707e-09
5.43293e-13
1.35656e-09
1.71515e-13
1.35591e-09
1.18351e-12
1.35548e-09
3.97759e-14
1.35552e-09
-6.2567e-13
1.35512e-09
-2.68279e-13
1.35521e-09
-3.43814e-13
1.35441e-09
-2.54809e-13
1.35483e-09
3.3659e-13
1.35475e-09
4.18622e-14
1.35479e-09
3.70584e-14
1.35473e-09
2.00627e-13
1.3551e-09
1.14551e-13
1.35526e-09
6.10677e-13
1.3549e-09
1.33795e-14
1.35546e-09
2.56109e-12
1.3553e-09
4.04827e-13
1.35502e-09
-1.90383e-12
1.35413e-09
-1.15181e-12
1.3545e-09
1.03655e-12
1.35483e-09
-5.73429e-13
1.35479e-09
3.20814e-13
1.35475e-09
6.26127e-14
1.35475e-09
-3.90525e-14
1.35449e-09
2.60735e-14
1.35512e-09
7.90197e-13
1.35473e-09
1.46821e-13
1.35471e-09
-5.16957e-13
1.35577e-09
1.59601e-12
1.35481e-09
-1.34613e-13
1.35489e-09
3.51592e-13
1.35452e-09
-3.96603e-13
1.3548e-09
-3.81395e-13
1.35513e-09
1.38569e-13
1.35574e-09
-2.49186e-13
1.35444e-09
2.51713e-12
8.46685e-14
-5.64267e-11
6.72118e-10
4.43303e-09
-5.29177e-09
-6.12484e-10
-7.73025e-09
-5.72771e-09
-1.11068e-09
1.58712e-08
-1.51191e-09
-3.54617e-10
6.37163e-09
-1.25617e-09
-4.07289e-09
-9.55087e-10
-2.96287e-08
-1.40071e-09
3.57317e-08
-4.61131e-09
-3.60207e-09
1.39566e-09
-1.30568e-10
1.02835e-08
-2.4543e-09
-2.20708e-09
-1.95615e-09
-3.09649e-09
-1.68186e-09
-1.12531e-09
8.70592e-10
4.09705e-10
1.95592e-09
-1.7134e-10
-4.2677e-11
6.6687e-10
-4.66133e-12
-1.56486e-10
-1.73523e-10
-1.58505e-10
2.22082e-11
2.3163e-11
1.69896e-11
1.63117e-11
2.31177e-09
1.25006e-10
3.6966e-11
-6.1641e-10
-6.04816e-10
-6.16413e-10
-6.04826e-10
2.26936e-09
9.11356e-11
1.59656e-12
2.25963e-09
4.32359e-11
3.99951e-13
2.25525e-09
2.62762e-11
5.03468e-13
2.25525e-09
1.50335e-11
-6.33412e-13
2.25573e-09
8.85364e-12
1.14026e-13
2.25568e-09
5.2488e-12
4.67649e-13
2.25576e-09
3.30093e-12
2.09797e-13
2.25629e-09
1.9713e-12
-1.61441e-13
2.25638e-09
1.40031e-12
3.1024e-14
2.25594e-09
9.42193e-13
2.49762e-13
2.256e-09
1.1184e-13
2.54146e-13
2.25583e-09
2.75867e-13
-7.73177e-14
2.25649e-09
5.97113e-13
-4.22513e-13
2.25603e-09
8.12092e-13
-3.43504e-13
2.25639e-09
1.38894e-12
-1.00003e-12
2.25574e-09
1.33823e-12
-2.98431e-13
2.25572e-09
1.66625e-12
-5.97329e-13
2.25739e-09
-2.99719e-12
-1.94806e-13
2.25708e-09
-3.40228e-13
3.84996e-13
2.25717e-09
1.30857e-13
8.86659e-15
2.25568e-09
-1.34867e-12
-3.94808e-14
2.25609e-09
-8.84088e-13
1.78339e-13
2.25509e-09
5.58606e-12
-1.52396e-12
2.25542e-09
4.33461e-12
-2.96629e-12
2.25556e-09
-5.02027e-13
-2.32137e-13
2.25643e-09
9.1099e-14
-4.00894e-13
2.25606e-09
-2.41632e-14
6.81616e-14
2.25581e-09
3.60795e-13
-6.73323e-14
2.25499e-09
7.54122e-13
6.09147e-14
2.2549e-09
-1.47629e-12
7.79866e-13
2.25732e-09
-7.0293e-13
-1.58069e-12
2.25648e-09
8.26594e-13
-6.91781e-14
2.25597e-09
2.63139e-13
-2.09223e-13
2.25653e-09
-1.07925e-13
-2.325e-14
2.25732e-09
1.63335e-12
1.00331e-13
2.25512e-09
3.72182e-12
-3.86835e-12
2.25538e-09
-5.3938e-13
-4.12388e-14
2.25566e-09
-2.58961e-12
1.05666e-12
2.25696e-09
-1.39798e-12
-2.51352e-13
2.25639e-09
3.7771e-13
1.70012e-13
2.25516e-09
7.68298e-13
6.72072e-13
-5.19948e-13
-4.2042e-13
-8.63301e-10
-8.60093e-09
1.98376e-09
-3.76986e-10
8.4651e-09
-5.68512e-10
-5.92917e-10
-4.77836e-09
2.84088e-09
1.13036e-09
1.9696e-09
2.64857e-09
8.19987e-10
7.68143e-10
7.18835e-11
-2.41277e-09
-1.89581e-09
1.39617e-10
2.52855e-09
-3.9679e-09
-2.31694e-10
3.66658e-09
-2.13516e-09
-4.6548e-08
-3.97045e-10
-7.01018e-10
-2.09803e-09
-9.52243e-10
5.07003e-08
-3.47857e-10
-1.3929e-10
1.40654e-10
-3.27253e-10
6.1702e-12
6.67583e-10
-1.15555e-10
-2.27238e-11
-2.61822e-11
2.62875e-11
1.64845e-12
1.36525e-10
2.21892e-09
2.735e-11
3.12804e-11
-5.71759e-10
-5.4023e-10
-5.71773e-10
-5.40216e-10
6.42071e-12
2.73474e-11
6.42008e-12
2.21263e-09
9.36883e-11
1.84748e-12
2.22891e-09
2.63769e-11
3.0606e-13
2.2379e-09
1.71542e-11
7.28759e-14
2.24473e-09
8.11178e-12
4.03226e-14
2.24907e-09
4.46701e-12
2.25706e-14
2.25202e-09
2.25791e-12
1.11172e-14
2.25407e-09
1.19011e-12
1.07276e-14
2.2547e-09
8.92702e-13
2.35263e-13
2.25591e-09
-1.58986e-13
9.91861e-14
2.2554e-09
-1.80206e-13
-8.27546e-13
2.25584e-09
-3.78233e-13
-7.43569e-14
2.25605e-09
2.05071e-14
-3.68619e-14
2.2563e-09
2.63774e-13
2.10277e-13
2.25608e-09
2.88583e-14
5.16193e-13
2.2562e-09
6.63522e-13
2.34834e-13
2.25766e-09
-2.31508e-12
1.01001e-12
2.25775e-09
-1.66025e-13
9.68582e-13
2.25489e-09
-4.95097e-13
1.78179e-13
2.25537e-09
-6.64464e-14
-3.68915e-13
2.25563e-09
-2.44879e-13
2.86496e-14
2.25514e-09
3.29273e-12
-1.98335e-12
2.25451e-09
1.01685e-12
-2.29859e-13
2.2556e-09
4.66545e-13
2.14554e-12
2.25579e-09
7.67943e-13
1.69296e-12
2.25697e-09
-2.4131e-12
2.60082e-12
2.25706e-09
1.36462e-12
9.31302e-13
2.25637e-09
5.83581e-13
1.63453e-14
2.25642e-09
1.18102e-13
9.27487e-14
2.25688e-09
3.92142e-13
-1.01349e-13
2.25693e-09
-4.67716e-13
-6.97326e-13
2.2547e-09
-6.73788e-13
1.73405e-12
2.25501e-09
5.86705e-13
-2.27815e-13
2.25495e-09
2.31522e-13
6.26792e-14
2.25426e-09
6.77642e-13
2.35627e-13
2.2556e-09
1.2777e-12
-2.75706e-13
2.25768e-09
7.03884e-14
3.13552e-12
2.25706e-09
5.30504e-14
3.3712e-15
2.25644e-09
-5.10418e-14
-1.12464e-12
2.25573e-09
-1.53642e-12
5.08662e-13
2.25593e-09
2.85776e-13
-1.46892e-13
2.25547e-09
1.19153e-12
-5.58273e-13
-4.10317e-13
2.13099e-13
-2.15182e-08
-6.14463e-09
-2.0219e-08
4.88042e-09
3.61954e-08
7.74224e-09
-8.79718e-09
9.85438e-10
3.14901e-09
2.0628e-09
2.27241e-09
-2.61454e-09
1.97748e-08
-6.65142e-10
-9.25701e-10
-2.0929e-08
5.3595e-09
-3.02714e-09
3.19139e-09
-2.10638e-09
5.07388e-10
2.58673e-09
-1.15199e-09
5.8931e-09
-1.6665e-08
-2.36481e-09
2.07614e-08
-7.23805e-10
-6.90089e-09
-2.3627e-08
-1.38426e-10
-4.6748e-09
1.52393e-11
2.32531e-08
1.61296e-09
-6.74972e-10
4.07189e-09
1.62082e-10
-3.50703e-10
-6.35728e-11
6.18671e-12
-3.90183e-11
5.37992e-11
3.93312e-10
-4.54409e-11
5.3715e-11
-4.37464e-11
1.15048e-12
-2.66281e-11
6.095e-11
-1.11188e-10
5.02218e-10
-1.36016e-11
3.86565e-13
-6.32521e-12
-1.12329e-10
-1.15268e-10
-1.16539e-10
2.13945e-09
-3.46396e-11
1.56596e-11
-5.02954e-10
-5.18063e-10
-5.02959e-10
-5.18084e-10
2.18929e-09
-2.75578e-11
2.02443e-12
2.22052e-09
-1.25307e-11
-7.71676e-13
2.2366e-09
-7.72942e-12
-1.14866e-13
2.24533e-09
-4.17555e-12
-5.90224e-14
2.24996e-09
-2.39588e-12
-4.4366e-15
2.25262e-09
-1.48888e-12
-6.67794e-15
2.25464e-09
-1.11983e-12
-2.08331e-14
2.25508e-09
-2.63606e-13
-4.90417e-13
2.25655e-09
-8.25583e-13
1.12463e-12
2.25543e-09
7.65087e-13
5.39523e-14
2.25602e-09
-5.79736e-13
-1.29274e-14
2.25669e-09
-5.67259e-13
-5.04514e-14
2.25711e-09
-4.64247e-13
1.32235e-14
2.25648e-09
-7.4144e-13
5.99178e-13
2.25585e-09
5.86772e-14
-9.72131e-13
2.25539e-09
-7.02905e-13
-2.55349e-13
2.25515e-09
-6.04737e-13
3.98833e-13
2.25508e-09
-1.03225e-13
3.10999e-14
2.25479e-09
3.16279e-13
-1.46552e-13
2.25576e-09
-4.20822e-13
1.33316e-12
2.25715e-09
-3.98151e-12
1.22292e-12
2.25676e-09
9.88169e-13
-1.66117e-13
2.25825e-09
-2.51959e-12
8.11619e-13
2.25618e-09
2.7415e-13
-2.48304e-12
2.25554e-09
2.95288e-13
-7.303e-13
2.25582e-09
1.91775e-13
2.96524e-14
2.2561e-09
-1.04789e-13
-9.59468e-15
2.25621e-09
2.39727e-13
6.22905e-14
2.25619e-09
-7.54657e-14
-1.5425e-13
2.25569e-09
-5.32771e-13
-2.68866e-14
2.25542e-09
9.2808e-13
2.20715e-13
2.25429e-09
6.39899e-13
7.68206e-13
2.25467e-09
4.25847e-13
-9.25873e-14
2.25539e-09
1.03461e-12
-2.24806e-13
2.25793e-09
-2.51621e-12
3.84851e-13
2.25707e-09
1.26643e-12
-3.48871e-13
2.25674e-09
7.28569e-13
-2.26691e-13
2.25557e-09
4.41381e-13
-3.80012e-13
2.25489e-09
8.81318e-13
4.63833e-14
2.25553e-09
5.98602e-13
-9.2365e-15
-2.05956e-12
1.11997e-12
-1.49769e-08
3.75434e-10
-1.69213e-09
8.21387e-09
7.90803e-09
9.43679e-09
-6.37712e-09
-2.28198e-09
3.22469e-08
1.22327e-09
3.32829e-09
6.00697e-10
-5.25197e-10
-3.6874e-08
4.56728e-10
1.10016e-08
-2.40865e-09
3.17441e-09
-1.36223e-08
1.39818e-09
1.03562e-10
-1.39726e-09
-1.23654e-08
2.38344e-09
1.16619e-09
6.06037e-10
6.07332e-10
9.19116e-10
1.29902e-08
5.32734e-10
-3.98857e-10
-5.14712e-09
-3.97342e-09
-2.7135e-10
-3.46289e-10
3.90131e-10
4.2895e-09
-8.85804e-11
-2.47294e-10
-3.05161e-10
-1.04604e-10
3.19499e-10
2.24113e-10
1.13446e-10
-2.04131e-10
1.52702e-11
5.24589e-11
4.58322e-12
2.67609e-11
1.05058e-10
-1.28648e-10
5.46907e-10
-4.7397e-11
7.2703e-15
-3.82324e-12
-1.38541e-10
-1.33778e-10
-1.45722e-10
5.09948e-11
2.20832e-09
-7.03634e-11
2.12568e-11
-5.48094e-10
-5.59439e-10
-5.48124e-10
-5.59477e-10
2.22237e-09
-4.7546e-11
2.89629e-12
2.23652e-09
-2.57175e-11
-4.58323e-13
2.24364e-09
-1.54462e-11
3.11465e-13
2.24855e-09
-9.08942e-12
-1.88666e-15
2.25163e-09
-5.5286e-12
9.6525e-15
2.25347e-09
-3.37732e-12
1.20204e-15
2.25433e-09
-2.06699e-12
3.33962e-14
2.25524e-09
-1.29005e-12
3.85973e-13
2.25559e-09
-4.4666e-13