/*--------------------------------*- C++ -*----------------------------------*\
| =========                 |                                                 |
| \\      /  F ield         | OpenFOAM: The Open Source CFD Toolbox           |
|  \\    /   O peration     | Version:  5.0                                   |
|   \\  /    A nd           | Web:      www.OpenFOAM.org                      |
|    \\/     M anipulation  |                                                 |
\*---------------------------------------------------------------------------*/
FoamFile
{
    version     2.0;
    format      ascii;
    class       volScalarField;
    location    "2.5";
    object      rAU;
}
// * * * * * * * * * * * * * * * * * * * * * * * * * * * * * * * * * * * * * //

dimensions      [-1 3 1 0 0 0 0];

internalField   nonuniform List<scalar> 
9851
(
8.61124e-07
8.57959e-07
7.46728e-07
4.02463e-07
8.67744e-07
6.8841e-07
1.29226e-07
3.9242e-07
3.93664e-07
3.94698e-07
3.95731e-07
3.96764e-07
3.97796e-07
3.98827e-07
3.99857e-07
4.00887e-07
4.01917e-07
4.02945e-07
4.03972e-07
4.05e-07
4.06026e-07
4.07051e-07
4.08076e-07
4.091e-07
4.10123e-07
4.11146e-07
4.12168e-07
4.13188e-07
4.14209e-07
4.15228e-07
4.16247e-07
4.17265e-07
4.18282e-07
4.19299e-07
4.20315e-07
4.21329e-07
4.22343e-07
4.23357e-07
4.24369e-07
4.2538e-07
4.26391e-07
4.27401e-07
4.2841e-07
4.29419e-07
4.30426e-07
4.31433e-07
4.32439e-07
4.33443e-07
4.34447e-07
4.36223e-07
8.33913e-07
8.56334e-07
6.24058e-07
4.79078e-07
8.80528e-07
6.48059e-07
3.50987e-08
3.92289e-07
3.93664e-07
3.94698e-07
3.95732e-07
3.96764e-07
3.97796e-07
3.98827e-07
3.99858e-07
4.00887e-07
4.01917e-07
4.02945e-07
4.03972e-07
4.05e-07
4.06026e-07
4.07051e-07
4.08076e-07
4.091e-07
4.10123e-07
4.11146e-07
4.12168e-07
4.13189e-07
4.14209e-07
4.15228e-07
4.16247e-07
4.17265e-07
4.18282e-07
4.19299e-07
4.20315e-07
4.21329e-07
4.22343e-07
4.23357e-07
4.24369e-07
4.2538e-07
4.26391e-07
4.27401e-07
4.2841e-07
4.29419e-07
4.30426e-07
4.31433e-07
4.32439e-07
4.33443e-07
4.34447e-07
4.36223e-07
5.7317e-07
7.42246e-07
6.29743e-07
4.32863e-07
8.95986e-07
6.91223e-07
7.55504e-08
1.2978e-07
3.93456e-07
3.94699e-07
3.95732e-07
3.96764e-07
3.97796e-07
3.98827e-07
3.99858e-07
4.00887e-07
4.01917e-07
4.02945e-07
4.03972e-07
4.05e-07
4.06026e-07
4.07051e-07
4.08076e-07
4.091e-07
4.10123e-07
4.11146e-07
4.12168e-07
4.13189e-07
4.14209e-07
4.15228e-07
4.16247e-07
4.17265e-07
4.18282e-07
4.19299e-07
4.20315e-07
4.21329e-07
4.22343e-07
4.23357e-07
4.24369e-07
4.2538e-07
4.26391e-07
4.27401e-07
4.2841e-07
4.29419e-07
4.30426e-07
4.31433e-07
4.32439e-07
4.33443e-07
4.34447e-07
4.36223e-07
5.86085e-07
6.0346e-07
6.11006e-07
8.91506e-07
8.73709e-07
6.80824e-07
6.98263e-07
1.29721e-07
3.93455e-07
3.94698e-07
3.95731e-07
3.96764e-07
3.97796e-07
3.98827e-07
3.99857e-07
4.00887e-07
4.01917e-07
4.02945e-07
4.03972e-07
4.05e-07
4.06026e-07
4.07051e-07
4.08076e-07
4.091e-07
4.10123e-07
4.11146e-07
4.12168e-07
4.13188e-07
4.14209e-07
4.15228e-07
4.16247e-07
4.17265e-07
4.18282e-07
4.19299e-07
4.20315e-07
4.21329e-07
4.22343e-07
4.23357e-07
4.24369e-07
4.2538e-07
4.26391e-07
4.27401e-07
4.2841e-07
4.29419e-07
4.30426e-07
4.31433e-07
4.32439e-07
4.33443e-07
4.34447e-07
4.36223e-07
6.82026e-07
8.25973e-07
6.31093e-07
8.65719e-07
6.25001e-07
6.79204e-07
7.01058e-07
1.29726e-07
3.93453e-07
3.94697e-07
3.95731e-07
3.96764e-07
3.97795e-07
3.98827e-07
3.99857e-07
4.00887e-07
4.01917e-07
4.02945e-07
4.03972e-07
4.05e-07
4.06026e-07
4.07051e-07
4.08076e-07
4.091e-07
4.10123e-07
4.11146e-07
4.12168e-07
4.13188e-07
4.14209e-07
4.15228e-07
4.16247e-07
4.17265e-07
4.18282e-07
4.19299e-07
4.20315e-07
4.21329e-07
4.22343e-07
4.23357e-07
4.24369e-07
4.2538e-07
4.26391e-07
4.27401e-07
4.2841e-07
4.29419e-07
4.30426e-07
4.31433e-07
4.32439e-07
4.33443e-07
4.34447e-07
4.36223e-07
5.94059e-07
5.60666e-07
4.14742e-07
7.47452e-07
6.01221e-07
6.83616e-07
7.00903e-07
1.29733e-07
3.93453e-07
3.94697e-07
3.95731e-07
3.96763e-07
3.97795e-07
3.98827e-07
3.99857e-07
4.00887e-07
4.01917e-07
4.02945e-07
4.03972e-07
4.05e-07
4.06026e-07
4.07051e-07
4.08076e-07
4.091e-07
4.10123e-07
4.11146e-07
4.12168e-07
4.13188e-07
4.14209e-07
4.15228e-07
4.16247e-07
4.17265e-07
4.18282e-07
4.19299e-07
4.20315e-07
4.21329e-07
4.22343e-07
4.23357e-07
4.24369e-07
4.2538e-07
4.26391e-07
4.27401e-07
4.2841e-07
4.29419e-07
4.30426e-07
4.31433e-07
4.32439e-07
4.33443e-07
4.34447e-07
4.36223e-07
8.68808e-07
8.67689e-07
5.77159e-07
6.23887e-07
1.79996e-07
6.83251e-07
6.99859e-07
1.29724e-07
3.93453e-07
3.94697e-07
3.95731e-07
3.96763e-07
3.97795e-07
3.98827e-07
3.99857e-07
4.00887e-07
4.01917e-07
4.02945e-07
4.03972e-07
4.05e-07
4.06026e-07
4.07051e-07
4.08076e-07
4.091e-07
4.10123e-07
4.11146e-07
4.12168e-07
4.13188e-07
4.14209e-07
4.15228e-07
4.16247e-07
4.17265e-07
4.18282e-07
4.19299e-07
4.20315e-07
4.21329e-07
4.22343e-07
4.23357e-07
4.24369e-07
4.2538e-07
4.26391e-07
4.27401e-07
4.2841e-07
4.29419e-07
4.30426e-07
4.31433e-07
4.32439e-07
4.33443e-07
4.34447e-07
4.36223e-07
8.77633e-07
5.66262e-07
4.85884e-07
5.99189e-07
8.40222e-07
6.85816e-07
6.92634e-07
1.29689e-07
3.93454e-07
3.94697e-07
3.95731e-07
3.96764e-07
3.97795e-07
3.98827e-07
3.99857e-07
4.00887e-07
4.01917e-07
4.02945e-07
4.03972e-07
4.05e-07
4.06026e-07
4.07051e-07
4.08076e-07
4.091e-07
4.10123e-07
4.11146e-07
4.12168e-07
4.13189e-07
4.14209e-07
4.15228e-07
4.16247e-07
4.17265e-07
4.18282e-07
4.19299e-07
4.20315e-07
4.21329e-07
4.22343e-07
4.23357e-07
4.24369e-07
4.2538e-07
4.26391e-07
4.27401e-07
4.2841e-07
4.29419e-07
4.30426e-07
4.31433e-07
4.32439e-07
4.33443e-07
4.34447e-07
4.36223e-07
8.59994e-07
8.7655e-07
7.74227e-07
4.90004e-07
5.35546e-07
6.84312e-07
5.97341e-08
3.92285e-07
3.93663e-07
3.94697e-07
3.95731e-07
3.96763e-07
3.97795e-07
3.98827e-07
3.99857e-07
4.00887e-07
4.01917e-07
4.02945e-07
4.03972e-07
4.05e-07
4.06026e-07
4.07051e-07
4.08076e-07
4.091e-07
4.10123e-07
4.11146e-07
4.12168e-07
4.13188e-07
4.14209e-07
4.15228e-07
4.16247e-07
4.17265e-07
4.18282e-07
4.19299e-07
4.20315e-07
4.21329e-07
4.22343e-07
4.23357e-07
4.24369e-07
4.2538e-07
4.26391e-07
4.27401e-07
4.2841e-07
4.29419e-07
4.30426e-07
4.31433e-07
4.32439e-07
4.33443e-07
4.34447e-07
4.36223e-07
8.75803e-07
6.31153e-07
6.35977e-07
7.92965e-07
8.4588e-07
4.92892e-07
3.50994e-08
3.9242e-07
3.93663e-07
3.94697e-07
3.95731e-07
3.96764e-07
3.97795e-07
3.98827e-07
3.99857e-07
4.00887e-07
4.01917e-07
4.02945e-07
4.03972e-07
4.05e-07
4.06026e-07
4.07051e-07
4.08076e-07
4.091e-07
4.10123e-07
4.11146e-07
4.12168e-07
4.13188e-07
4.14209e-07
4.15228e-07
4.16247e-07
4.17265e-07
4.18282e-07
4.19299e-07
4.20315e-07
4.21329e-07
4.22343e-07
4.23357e-07
4.24369e-07
4.2538e-07
4.26391e-07
4.27401e-07
4.2841e-07
4.29419e-07
4.30426e-07
4.31433e-07
4.32439e-07
4.33443e-07
4.34447e-07
4.36223e-07
8.72308e-07
9.11297e-07
6.79365e-07
2.08253e-07
9.16562e-07
7.11517e-07
1.83261e-07
5.04898e-07
5.06388e-07
5.0753e-07
5.08668e-07
5.09805e-07
5.10941e-07
5.12074e-07
5.13207e-07
5.14338e-07
5.15466e-07
5.16594e-07
5.1772e-07
5.18843e-07
5.19966e-07
5.21087e-07
5.22206e-07
5.23324e-07
5.2444e-07
5.25554e-07
5.26667e-07
5.27779e-07
5.28887e-07
5.29995e-07
5.31102e-07
5.32206e-07
5.33309e-07
5.34411e-07
5.35509e-07
5.36608e-07
5.37704e-07
5.38798e-07
5.39891e-07
5.40983e-07
5.42072e-07
5.4316e-07
5.44246e-07
5.4533e-07
5.46414e-07
5.47495e-07
5.48574e-07
5.49652e-07
5.50729e-07
5.53043e-07
8.97592e-07
3.88291e-07
6.39421e-07
3.16037e-07
5.18282e-07
6.93241e-07
5.1808e-08
5.04682e-07
5.0639e-07
5.07532e-07
5.08669e-07
5.09806e-07
5.10942e-07
5.12074e-07
5.13207e-07
5.14338e-07
5.15466e-07
5.16594e-07
5.1772e-07
5.18843e-07
5.19966e-07
5.21087e-07
5.22206e-07
5.23324e-07
5.2444e-07
5.25554e-07
5.26667e-07
5.27779e-07
5.28887e-07
5.29995e-07
5.31102e-07
5.32206e-07
5.33309e-07
5.3441e-07
5.35509e-07
5.36608e-07
5.37704e-07
5.38798e-07
5.39891e-07
5.40983e-07
5.42072e-07
5.4316e-07
5.44247e-07
5.4533e-07
5.46414e-07
5.47495e-07
5.48574e-07
5.49652e-07
5.50729e-07
5.53043e-07
8.18221e-07
3.34365e-07
1.46732e-07
6.24158e-07
8.57032e-07
7.21395e-07
1.09085e-07
1.8407e-07
5.06046e-07
5.07532e-07
5.08669e-07
5.09806e-07
5.10942e-07
5.12074e-07
5.13207e-07
5.14338e-07
5.15466e-07
5.16594e-07
5.1772e-07
5.18843e-07
5.19966e-07
5.21087e-07
5.22206e-07
5.23324e-07
5.2444e-07
5.25554e-07
5.26667e-07
5.27779e-07
5.28887e-07
5.29995e-07
5.31102e-07
5.32206e-07
5.33309e-07
5.3441e-07
5.35509e-07
5.36608e-07
5.37704e-07
5.38798e-07
5.39891e-07
5.40983e-07
5.42072e-07
5.4316e-07
5.44247e-07
5.4533e-07
5.46414e-07
5.47495e-07
5.48574e-07
5.49652e-07
5.50729e-07
5.53043e-07
8.82254e-07
3.71546e-07
6.52567e-07
9.12746e-07
9.30456e-07
6.76623e-07
7.73498e-07
1.83949e-07
5.06041e-07
5.07529e-07
5.08668e-07
5.09805e-07
5.10941e-07
5.12074e-07
5.13207e-07
5.14338e-07
5.15466e-07
5.16594e-07
5.1772e-07
5.18843e-07
5.19966e-07
5.21087e-07
5.22206e-07
5.23324e-07
5.2444e-07
5.25554e-07
5.26667e-07
5.27779e-07
5.28887e-07
5.29995e-07
5.31102e-07
5.32206e-07
5.33309e-07
5.34411e-07
5.35509e-07
5.36608e-07
5.37704e-07
5.38798e-07
5.39891e-07
5.40983e-07
5.42072e-07
5.4316e-07
5.44247e-07
5.4533e-07
5.46414e-07
5.47495e-07
5.48574e-07
5.49652e-07
5.50729e-07
5.53043e-07
8.08476e-07
9.1467e-07
6.50982e-07
2.50771e-07
5.24321e-07
6.8171e-07
7.77221e-07
1.83965e-07
5.06038e-07
5.07527e-07
5.08667e-07
5.09804e-07
5.10941e-07
5.12074e-07
5.13207e-07
5.14338e-07
5.15466e-07
5.16594e-07
5.1772e-07
5.18843e-07
5.19966e-07
5.21087e-07
5.22206e-07
5.23324e-07
5.2444e-07
5.25554e-07
5.26667e-07
5.27779e-07
5.28887e-07
5.29995e-07
5.31102e-07
5.32206e-07
5.33309e-07
5.34411e-07
5.35509e-07
5.36608e-07
5.37704e-07
5.38798e-07
5.39891e-07
5.40983e-07
5.42072e-07
5.4316e-07
5.44247e-07
5.4533e-07
5.46414e-07
5.47495e-07
5.48574e-07
5.49652e-07
5.50729e-07
5.53043e-07
9.13037e-07
5.45265e-07
1.70522e-07
1.2958e-07
6.39422e-07
6.69244e-07
7.74169e-07
1.83978e-07
5.06036e-07
5.07527e-07
5.08666e-07
5.09804e-07
5.1094e-07
5.12074e-07
5.13207e-07
5.14338e-07
5.15466e-07
5.16594e-07
5.1772e-07
5.18843e-07
5.19966e-07
5.21087e-07
5.22206e-07
5.23324e-07
5.2444e-07
5.25554e-07
5.26667e-07
5.27779e-07
5.28887e-07
5.29995e-07
5.31102e-07
5.32206e-07
5.33309e-07
5.34411e-07
5.35509e-07
5.36608e-07
5.37704e-07
5.38798e-07
5.39891e-07
5.40983e-07
5.42072e-07
5.4316e-07
5.44247e-07
5.4533e-07
5.46414e-07
5.47495e-07
5.48574e-07
5.49652e-07
5.50729e-07
5.53043e-07
8.61448e-07
5.68383e-07
3.52903e-07
8.34586e-07
8.61229e-07
7.43569e-07
7.72269e-07
1.83948e-07
5.06037e-07
5.07527e-07
5.08666e-07
5.09804e-07
5.1094e-07
5.12074e-07
5.13207e-07
5.14338e-07
5.15466e-07
5.16594e-07
5.1772e-07
5.18843e-07
5.19966e-07
5.21087e-07
5.22206e-07
5.23324e-07
5.2444e-07
5.25554e-07
5.26667e-07
5.27779e-07
5.28887e-07
5.29995e-07
5.31102e-07
5.32206e-07
5.33309e-07
5.34411e-07
5.35509e-07
5.36608e-07
5.37704e-07
5.38798e-07
5.39891e-07
5.40983e-07
5.42072e-07
5.4316e-07
5.44247e-07
5.4533e-07
5.46414e-07
5.47495e-07
5.48574e-07
5.49652e-07
5.50729e-07
5.53043e-07
9.1346e-07
3.02203e-07
4.60327e-07
8.37886e-07
8.92235e-07
7.6381e-07
7.69164e-07
1.83948e-07
5.06041e-07
5.07528e-07
5.08667e-07
5.09804e-07
5.10941e-07
5.12074e-07
5.13207e-07
5.14338e-07
5.15466e-07
5.16594e-07
5.1772e-07
5.18843e-07
5.19966e-07
5.21087e-07
5.22206e-07
5.23324e-07
5.2444e-07
5.25554e-07
5.26667e-07
5.27779e-07
5.28887e-07
5.29995e-07
5.31102e-07
5.32206e-07
5.33309e-07
5.34411e-07
5.35509e-07
5.36608e-07
5.37704e-07
5.38798e-07
5.39891e-07
5.40983e-07
5.42072e-07
5.4316e-07
5.44247e-07
5.4533e-07
5.46414e-07
5.47495e-07
5.48574e-07
5.49652e-07
5.50729e-07
5.53043e-07
8.84994e-07
4.26232e-07
5.97866e-07
3.22793e-07
6.76281e-07
6.90945e-07
8.72289e-08
5.04672e-07
5.06385e-07
5.07527e-07
5.08666e-07
5.09804e-07
5.1094e-07
5.12074e-07
5.13207e-07
5.14338e-07
5.15466e-07
5.16594e-07
5.1772e-07
5.18843e-07
5.19966e-07
5.21087e-07
5.22206e-07
5.23324e-07
5.2444e-07
5.25554e-07
5.26667e-07
5.27779e-07
5.28887e-07
5.29995e-07
5.31102e-07
5.32206e-07
5.33309e-07
5.3441e-07
5.35509e-07
5.36608e-07
5.37704e-07
5.38798e-07
5.39891e-07
5.40983e-07
5.42072e-07
5.4316e-07
5.44247e-07
5.4533e-07
5.46414e-07
5.47495e-07
5.48574e-07
5.49652e-07
5.50728e-07
5.53043e-07
8.99495e-07
6.34808e-07
8.07297e-07
6.31236e-07
5.08467e-07
6.64472e-07
5.18105e-08
5.04896e-07
5.06387e-07
5.07529e-07
5.08667e-07
5.09805e-07
5.10941e-07
5.12074e-07
5.13207e-07
5.14338e-07
5.15466e-07
5.16594e-07
5.1772e-07
5.18843e-07
5.19966e-07
5.21087e-07
5.22206e-07
5.23324e-07
5.2444e-07
5.25554e-07
5.26667e-07
5.27779e-07
5.28887e-07
5.29995e-07
5.31102e-07
5.32206e-07
5.33309e-07
5.3441e-07
5.35509e-07
5.36608e-07
5.37704e-07
5.38798e-07
5.39891e-07
5.40983e-07
5.42072e-07
5.4316e-07
5.44246e-07
5.4533e-07
5.46414e-07
5.47495e-07
5.48574e-07
5.49652e-07
5.50729e-07
5.53043e-07
8.91398e-07
8.5625e-07
4.03235e-07
7.46931e-07
9.20612e-07
6.85073e-07
1.83263e-07
3.9242e-07
3.93664e-07
3.94698e-07
3.95731e-07
3.96764e-07
3.97796e-07
3.98827e-07
3.99857e-07
4.00887e-07
4.01917e-07
4.02945e-07
4.03972e-07
4.05e-07
4.06026e-07
4.07051e-07
4.08076e-07
4.091e-07
4.10123e-07
4.11146e-07
4.12168e-07
4.13188e-07
4.14209e-07
4.15228e-07
4.16247e-07
4.17265e-07
4.18282e-07
4.19299e-07
4.20315e-07
4.21329e-07
4.22343e-07
4.23357e-07
4.24369e-07
4.2538e-07
4.26391e-07
4.27401e-07
4.2841e-07
4.29419e-07
4.30426e-07
4.31432e-07
4.32439e-07
4.33443e-07
4.34447e-07
4.36223e-07
9.08961e-07
2.7609e-07
2.37618e-07
5.50453e-07
5.09282e-07
7.61929e-07
5.18075e-08
3.92289e-07
3.93664e-07
3.94698e-07
3.95732e-07
3.96764e-07
3.97796e-07
3.98827e-07
3.99857e-07
4.00887e-07
4.01917e-07
4.02945e-07
4.03972e-07
4.05e-07
4.06026e-07
4.07051e-07
4.08076e-07
4.091e-07
4.10123e-07
4.11146e-07
4.12168e-07
4.13188e-07
4.14209e-07
4.15228e-07
4.16247e-07
4.17265e-07
4.18282e-07
4.19298e-07
4.20314e-07
4.21329e-07
4.22343e-07
4.23357e-07
4.24369e-07
4.2538e-07
4.26391e-07
4.27401e-07
4.2841e-07
4.29419e-07
4.30426e-07
4.31432e-07
4.32439e-07
4.33443e-07
4.34447e-07
4.36223e-07
8.80866e-07
3.57597e-07
7.70542e-07
7.775e-07
8.54325e-07
7.47551e-07
1.09007e-07
1.84074e-07
3.93456e-07
3.94699e-07
3.95732e-07
3.96764e-07
3.97796e-07
3.98827e-07
3.99857e-07
4.00887e-07
4.01917e-07
4.02945e-07
4.03972e-07
4.05e-07
4.06026e-07
4.07051e-07
4.08076e-07
4.091e-07
4.10123e-07
4.11146e-07
4.12168e-07
4.13188e-07
4.14209e-07
4.15228e-07
4.16247e-07
4.17265e-07
4.18282e-07
4.19299e-07
4.20315e-07
4.21329e-07
4.22343e-07
4.23357e-07
4.24369e-07
4.2538e-07
4.26391e-07
4.27401e-07
4.2841e-07
4.29419e-07
4.30426e-07
4.31432e-07
4.32439e-07
4.33443e-07
4.34447e-07
4.36223e-07
9.17119e-07
8.80033e-07
2.88692e-07
1.97294e-07
9.10656e-07
6.90269e-07
7.73273e-07
1.83954e-07
3.93454e-07
3.94698e-07
3.95731e-07
3.96764e-07
3.97795e-07
3.98827e-07
3.99857e-07
4.00887e-07
4.01917e-07
4.02945e-07
4.03972e-07
4.05e-07
4.06026e-07
4.07051e-07
4.08076e-07
4.091e-07
4.10123e-07
4.11146e-07
4.12168e-07
4.13188e-07
4.14209e-07
4.15228e-07
4.16247e-07
4.17265e-07
4.18282e-07
4.19299e-07
4.20314e-07
4.21329e-07
4.22343e-07
4.23357e-07
4.24369e-07
4.2538e-07
4.26391e-07
4.27401e-07
4.2841e-07
4.29419e-07
4.30426e-07
4.31432e-07
4.32439e-07
4.33443e-07
4.34447e-07
4.36223e-07
9.48127e-07
8.81043e-07
5.09326e-07
1.97478e-07
5.27075e-07
6.87887e-07
7.77128e-07
1.83967e-07
3.93453e-07
3.94697e-07
3.95731e-07
3.96764e-07
3.97795e-07
3.98827e-07
3.99857e-07
4.00887e-07
4.01917e-07
4.02945e-07
4.03972e-07
4.05e-07
4.06026e-07
4.07051e-07
4.08076e-07
4.091e-07
4.10123e-07
4.11146e-07
4.12168e-07
4.13188e-07
4.14209e-07
4.15228e-07
4.16247e-07
4.17265e-07
4.18282e-07
4.19299e-07
4.20314e-07
4.21329e-07
4.22343e-07
4.23357e-07
4.24369e-07
4.2538e-07
4.26391e-07
4.27401e-07
4.2841e-07
4.29419e-07
4.30426e-07
4.31432e-07
4.32439e-07
4.33443e-07
4.34447e-07
4.36223e-07
9.55375e-07
9.12943e-07
2.84e-07
7.8549e-07
2.35773e-07
6.71547e-07
7.74513e-07
1.83981e-07
3.93453e-07
3.94697e-07
3.95731e-07
3.96763e-07
3.97795e-07
3.98827e-07
3.99857e-07
4.00887e-07
4.01916e-07
4.02945e-07
4.03972e-07
4.05e-07
4.06026e-07
4.07051e-07
4.08076e-07
4.091e-07
4.10123e-07
4.11146e-07
4.12168e-07
4.13188e-07
4.14209e-07
4.15228e-07
4.16247e-07
4.17265e-07
4.18282e-07
4.19299e-07
4.20315e-07
4.21329e-07
4.22343e-07
4.23357e-07
4.24369e-07
4.2538e-07
4.26391e-07
4.27401e-07
4.2841e-07
4.29419e-07
4.30426e-07
4.31432e-07
4.32439e-07
4.33443e-07
4.34447e-07
4.36223e-07
8.32925e-07
1.63476e-07
4.29627e-07
7.58517e-07
7.62938e-07
7.38458e-07
7.7262e-07
1.83952e-07
3.93453e-07
3.94697e-07
3.95731e-07
3.96763e-07
3.97795e-07
3.98827e-07
3.99857e-07
4.00887e-07
4.01916e-07
4.02945e-07
4.03972e-07
4.05e-07
4.06026e-07
4.07051e-07
4.08076e-07
4.091e-07
4.10123e-07
4.11146e-07
4.12168e-07
4.13188e-07
4.14209e-07
4.15228e-07
4.16247e-07
4.17265e-07
4.18282e-07
4.19299e-07
4.20314e-07
4.21329e-07
4.22343e-07
4.23357e-07
4.24369e-07
4.2538e-07
4.26391e-07
4.27401e-07
4.2841e-07
4.29419e-07
4.30426e-07
4.31432e-07
4.32439e-07
4.33443e-07
4.34447e-07
4.36223e-07
8.48728e-07
6.4467e-07
9.05585e-07
8.82517e-07
6.62491e-07
7.52673e-07
7.69192e-07
1.83953e-07
3.93454e-07
3.94697e-07
3.95731e-07
3.96763e-07
3.97795e-07
3.98827e-07
3.99857e-07
4.00887e-07
4.01916e-07
4.02945e-07
4.03972e-07
4.05e-07
4.06026e-07
4.07051e-07
4.08076e-07
4.091e-07
4.10123e-07
4.11146e-07
4.12168e-07
4.13188e-07
4.14209e-07
4.15228e-07
4.16247e-07
4.17265e-07
4.18282e-07
4.19299e-07
4.20315e-07
4.21329e-07
4.22343e-07
4.23357e-07
4.24369e-07
4.2538e-07
4.26391e-07
4.27401e-07
4.2841e-07
4.29419e-07
4.30426e-07
4.31432e-07
4.32439e-07
4.33443e-07
4.34447e-07
4.36223e-07
8.8526e-07
3.23919e-07
6.55089e-07
8.79808e-07
5.67664e-07
7.04539e-07
8.7168e-08
3.92285e-07
3.93663e-07
3.94697e-07
3.95731e-07
3.96763e-07
3.97795e-07
3.98827e-07
3.99857e-07
4.00887e-07
4.01916e-07
4.02945e-07
4.03972e-07
4.05e-07
4.06026e-07
4.07051e-07
4.08076e-07
4.091e-07
4.10123e-07
4.11146e-07
4.12168e-07
4.13188e-07
4.14209e-07
4.15228e-07
4.16247e-07
4.17265e-07
4.18282e-07
4.19298e-07
4.20315e-07
4.21329e-07
4.22343e-07
4.23357e-07
4.24369e-07
4.2538e-07
4.26391e-07
4.27401e-07
4.2841e-07
4.29419e-07
4.30426e-07
4.31432e-07
4.32439e-07
4.33443e-07
4.34447e-07
4.36223e-07
8.51185e-07
8.5412e-07
8.92081e-07
8.53425e-07
5.63584e-07
7.41318e-07
5.18109e-08
3.9242e-07
3.93663e-07
3.94697e-07
3.95731e-07
3.96764e-07
3.97795e-07
3.98827e-07
3.99857e-07
4.00887e-07
4.01917e-07
4.02945e-07
4.03972e-07
4.05e-07
4.06026e-07
4.07051e-07
4.08076e-07
4.091e-07
4.10123e-07
4.11146e-07
4.12168e-07
4.13188e-07
4.14209e-07
4.15228e-07
4.16247e-07
4.17265e-07
4.18282e-07
4.19298e-07
4.20315e-07
4.21329e-07
4.22343e-07
4.23357e-07
4.24369e-07
4.2538e-07
4.26391e-07
4.27401e-07
4.2841e-07
4.29419e-07
4.30426e-07
4.31432e-07
4.32439e-07
4.33443e-07
4.34447e-07
4.36223e-07
3.84021e-08
6.14441e-07
4.06666e-08
7.19315e-07
5.6795e-08
6.81149e-07
6.00146e-08
4.91843e-08
6.90177e-07
2.7945e-07
6.9313e-07
7.30118e-08
7.1717e-07
3.59654e-07
6.93519e-07
6.91642e-07
7.00937e-07
7.27623e-07
7.68351e-07
7.57713e-07
7.76914e-07
7.00616e-07
6.83575e-07
7.00961e-07
6.91029e-07
7.75141e-07
6.99274e-07
7.74398e-07
6.98529e-07
6.74596e-07
6.99999e-07
6.9076e-07
7.73392e-07
7.561e-07
7.76025e-07
6.99167e-07
6.70478e-07
6.99693e-07
6.92122e-07
7.73957e-07
7.3578e-07
7.7471e-07
6.99121e-07
4.92364e-07
7.01155e-07
7.52268e-07
7.72845e-07
6.68303e-07
7.76503e-07
7.01096e-07
6.52928e-07
6.94866e-07
7.45808e-07
7.77039e-07
6.11745e-07
7.68088e-07
6.90743e-07
6.05536e-07
7.28986e-08
7.13871e-07
7.64061e-07
7.04925e-07
1.05612e-07
5.13974e-08
5.44956e-07
3.71996e-08
6.63079e-07
7.62896e-08
4.53287e-07
5.47523e-08
5.68295e-08
6.86139e-07
6.00775e-08
6.96196e-07
5.6823e-08
7.22542e-07
6.00913e-08
7.31729e-08
7.27872e-07
3.58864e-07
7.22356e-07
7.31032e-08
7.23368e-07
3.58689e-07
7.6821e-07
7.60033e-07
7.76898e-07
7.33896e-07
7.68265e-07
7.47738e-07
7.76899e-07
7.74925e-07
6.89698e-07
7.73371e-07
6.89499e-07
7.75025e-07
7.16102e-07
7.76667e-07
7.73777e-07
7.61196e-07
7.74371e-07
6.81393e-07
7.73115e-07
7.25478e-07
7.75698e-07
7.73147e-07
7.31426e-07
7.73639e-07
6.81079e-07
7.73115e-07
7.14568e-07
7.72918e-07
7.70694e-07
6.66344e-07
7.77589e-07
6.94612e-07
7.72866e-07
6.45943e-07
7.7636e-07
7.76871e-07
6.1014e-07
7.68563e-07
7.4464e-07
7.77455e-07
6.29719e-07
7.65384e-07
7.64192e-07
6.96822e-07
1.05636e-07
6.76303e-07
7.64355e-07
7.1785e-07
1.05622e-07
7.64972e-08
4.75216e-07
5.47871e-08
7.53554e-07
7.66641e-08
6.64458e-07
5.50128e-08
5.67653e-08
7.19745e-07
6.00063e-08
6.87131e-07
3.83723e-08
6.66764e-07
4.06744e-08
7.30961e-08
7.27288e-07
3.59503e-07
6.92524e-07
4.95971e-08
6.83182e-07
2.80977e-07
7.67964e-07
7.61168e-07
7.76863e-07
6.72296e-07
6.93491e-07
6.90305e-07
7.00984e-07
7.75e-07
7.08978e-07
7.74653e-07
6.78787e-07
6.98695e-07
6.6036e-07
7.00837e-07
7.73425e-07
7.32958e-07
7.75232e-07
6.83666e-07
6.99397e-07
6.73157e-07
6.99851e-07
7.73536e-07
7.09915e-07
7.71916e-07
5.4637e-07
6.99846e-07
5.58793e-07
6.99775e-07
7.71624e-07
6.7637e-07
7.75274e-07
6.78754e-07
6.99434e-07
6.82603e-07
6.99844e-07
7.77319e-07
6.55465e-07
7.63254e-07
6.88473e-07
7.01162e-07
6.5334e-07
6.93625e-07
7.64527e-07
7.34373e-07
1.05582e-07
6.80245e-07
6.90638e-07
6.8313e-07
7.28692e-08
7.65292e-08
6.95519e-07
5.50157e-08
6.78068e-07
5.16914e-08
6.6285e-07
3.71653e-08
8.78809e-07
8.73872e-07
5.60269e-07
8.57612e-07
9.06316e-07
9.12007e-07
6.71921e-07
7.69417e-07
6.96601e-07
6.70918e-07
7.4218e-07
7.49472e-07
6.95973e-07
7.70175e-07
1.29658e-07
3.49728e-08
1.29567e-07
1.83263e-07
1.84016e-07
5.17932e-08
1.83833e-07
8.97865e-07
8.65661e-07
8.6888e-07
7.69791e-07
9.17804e-07
8.75481e-07
8.74405e-07
7.30767e-07
6.97463e-07
5.91164e-07
7.25703e-07
7.71075e-07
6.68866e-07
6.82923e-07
1.29567e-07
4.5037e-08
1.29509e-07
5.18075e-08
1.83833e-07
6.65761e-08
1.83717e-07
8.99649e-07
8.85015e-07
8.71771e-07
8.69424e-07
9.10074e-07
8.92394e-07
8.99676e-07
7.73532e-07
6.96907e-07
6.32788e-07
7.60556e-07
7.72272e-07
6.61948e-07
6.97603e-07
3.52934e-08
6.92928e-07
3.52767e-08
1.09067e-07
5.20172e-08
7.69434e-07
5.19812e-08
8.63026e-07
8.58239e-07
8.95917e-07
8.76426e-07
8.38465e-07
8.13724e-07
8.72659e-07
6.27625e-07
6.95182e-07
6.82101e-07
7.36897e-07
7.56608e-07
7.30823e-07
5.05589e-07
3.52799e-08
6.99437e-07
3.54021e-08
7.73222e-07
5.19881e-08
7.74042e-07
5.23652e-08
6.36347e-07
6.04345e-07
5.59616e-07
5.31067e-07
4.4574e-07
3.88216e-07
5.15096e-07
7.52994e-07
6.98004e-07
6.61116e-07
7.01846e-07
7.70133e-07
6.97772e-07
6.90375e-07
3.59257e-08
7.0097e-07
3.73311e-08
7.77127e-07
5.32671e-08
7.77309e-07
5.53224e-08
4.54593e-07
3.77872e-07
6.11365e-07
4.70953e-07
3.66449e-07
4.3301e-07
7.8617e-07
7.59872e-07
6.92477e-07
6.92243e-07
7.44267e-07
7.58773e-07
7.64456e-07
6.94416e-07
3.76977e-08
7.00128e-07
3.588e-08
7.75264e-07
5.58631e-08
7.74387e-07
5.31848e-08
8.7971e-07
8.87233e-07
8.57669e-07
8.13644e-07
8.97694e-07
9.06958e-07
9.11307e-07
7.71763e-07
6.93358e-07
6.8962e-07
7.64364e-07
7.6502e-07
7.47319e-07
6.97838e-07
3.53951e-08
6.97896e-07
3.52794e-08
7.70505e-07
5.23451e-08
7.73231e-07
5.19865e-08
7.88388e-07
7.83405e-07
8.96423e-07
8.41572e-07
8.88454e-07
8.76766e-07
8.83747e-07
7.15068e-07
6.98108e-07
6.88051e-07
7.10543e-07
7.67854e-07
7.14826e-07
6.42172e-07
3.52652e-08
9.78299e-08
3.50725e-08
7.69493e-07
5.19806e-08
1.40155e-07
5.20169e-08
6.36531e-07
6.25262e-07
2.32703e-07
6.5799e-07
7.04966e-07
4.83822e-07
6.54981e-07
7.647e-07
6.964e-07
6.88214e-07
7.37416e-07
7.6682e-07
7.22991e-07
6.97652e-07
1.29508e-07
3.53585e-08
1.29566e-07
8.71799e-08
1.83714e-07
5.23117e-08
1.83832e-07
1.94703e-07
5.55517e-07
4.99441e-07
4.1713e-07
2.23524e-07
5.89585e-07
1.92681e-07
7.67607e-07
6.98461e-07
6.77895e-07
6.24418e-07
7.71239e-07
7.10615e-07
6.95316e-07
1.29566e-07
1.29232e-07
1.29658e-07
5.18101e-08
1.83831e-07
1.83271e-07
1.84017e-07
9.0089e-07
8.15368e-07
6.87819e-07
8.88233e-07
8.73401e-07
7.51939e-07
7.80204e-07
7.69767e-07
7.64762e-07
7.17232e-07
7.0604e-07
7.70565e-07
7.17572e-07
7.64151e-07
1.84011e-07
5.17934e-08
1.83828e-07
1.83261e-07
1.84012e-07
5.17931e-08
1.83828e-07
9.04998e-07
8.88435e-07
9.17037e-07
6.50826e-07
9.2081e-07
8.3156e-07
8.95505e-07
6.73726e-07
7.71771e-07
6.91682e-07
7.08819e-07
6.71775e-07
7.67107e-07
6.84539e-07
1.83828e-07
6.66588e-08
1.83712e-07
5.18075e-08
1.83828e-07
6.66572e-08
1.83713e-07
8.51567e-07
9.0727e-07
9.12464e-07
8.91989e-07
9.11825e-07
8.60107e-07
9.28026e-07
7.63954e-07
7.61993e-07
7.12331e-07
6.93093e-07
7.69438e-07
7.64667e-07
7.08294e-07
5.20168e-08
7.69474e-07
5.19809e-08
1.09024e-07
5.20169e-08
7.69691e-07
5.1981e-08
8.65743e-07
9.22718e-07
9.13069e-07
8.69271e-07
7.93309e-07
8.65619e-07
8.56531e-07
6.06492e-07
7.25311e-07
4.45269e-07
6.61657e-07
6.18903e-07
7.21462e-07
4.02554e-07
5.19877e-08
7.74454e-07
5.23971e-08
7.73088e-07
5.19877e-08
7.73436e-07
5.23955e-08
4.59725e-07
4.36452e-07
5.11709e-07
5.33832e-07
3.80514e-07
3.13925e-07
7.09903e-07
7.28364e-07
7.51285e-07
6.91743e-07
6.76203e-07
7.26445e-07
7.49669e-07
6.38423e-07
5.33227e-08
7.77012e-07
5.53777e-08
7.7668e-07
5.33184e-08
7.76622e-07
5.53858e-08
5.86729e-07
6.75643e-07
7.94837e-07
5.09624e-07
6.55351e-07
7.80592e-07
8.27231e-07
7.41836e-07
7.41816e-07
7.06223e-07
6.76884e-07
7.43449e-07
7.38984e-07
7.39493e-07
5.59265e-08
7.72695e-07
5.32309e-08
7.73858e-07
5.59215e-08
7.73085e-07
5.32325e-08
8.68021e-07
9.01347e-07
7.93589e-07
8.02328e-07
9.0121e-07
8.17628e-07
8.93791e-07
7.66227e-07
7.56698e-07
6.39518e-07
6.73205e-07
7.61146e-07
7.54804e-07
6.81222e-07
5.23742e-08
7.73207e-07
5.19862e-08
7.75161e-07
5.23712e-08
7.7328e-07
5.19862e-08
8.88737e-07
8.08845e-07
9.00985e-07
7.67904e-07
8.64402e-07
8.45038e-07
7.145e-07
7.1152e-07
7.51479e-07
6.13547e-07
7.57318e-07
7.1583e-07
7.53238e-07
5.57981e-07
5.19802e-08
1.39947e-07
5.20164e-08
7.68817e-07
5.19802e-08
1.39394e-07
5.20164e-08
6.91664e-07
4.44319e-07
5.12287e-07
4.49022e-07
6.59694e-07
7.68807e-07
3.31807e-07
7.55896e-07
7.46354e-07
7.22644e-07
6.64812e-07
7.55916e-07
7.38518e-07
7.13062e-07
1.83708e-07
5.23533e-08
1.83827e-07
8.72201e-08
1.83709e-07
5.23531e-08
1.83827e-07
2.2187e-07
6.16766e-07
2.46169e-07
4.49928e-07
4.53402e-07
7.72686e-07
2.36537e-07
7.518e-07
7.69545e-07
6.42302e-07
6.98532e-07
7.52489e-07
7.68051e-07
6.22204e-07
1.83826e-07
1.83269e-07
1.84012e-07
5.18113e-08
1.83826e-07
1.83274e-07
1.84012e-07
8.49537e-07
7.52957e-07
8.48424e-07
8.715e-07
7.96089e-07
7.07044e-07
8.10845e-07
7.70086e-07
7.65406e-07
7.2405e-07
7.07347e-07
7.67611e-07
7.20644e-07
7.64946e-07
1.84016e-07
5.17928e-08
1.83832e-07
1.29226e-07
1.29658e-07
3.49196e-08
1.29567e-07
8.80975e-07
9.00075e-07
9.14951e-07
7.9082e-07
8.75648e-07
8.79318e-07
8.72878e-07
7.02743e-07
7.68657e-07
6.6347e-07
7.68857e-07
6.85004e-07
7.69279e-07
6.68973e-07
1.83833e-07
6.65714e-08
1.83717e-07
3.51528e-08
1.29567e-07
4.49849e-08
1.29509e-07
8.73241e-07
9.24364e-07
8.8596e-07
8.63097e-07
8.77338e-07
8.86359e-07
8.86707e-07
7.67074e-07
7.7075e-07
7.48936e-07
7.52926e-07
7.67888e-07
7.68069e-07
7.21835e-07
5.20172e-08
7.69505e-07
5.19812e-08
7.55204e-08
3.51957e-08
6.92964e-07
3.52767e-08
7.51899e-07
9.17548e-07
8.86426e-07
8.6946e-07
6.80053e-07
8.74353e-07
8.87156e-07
6.07017e-07
7.09696e-07
3.83007e-07
7.06912e-07
6.09935e-07
7.1056e-07
3.81888e-07
5.19879e-08
7.74826e-07
5.23641e-08
6.98268e-07
3.5279e-08
7.00633e-07
3.5402e-08
6.04242e-07
1.64105e-07
5.97079e-07
7.44583e-07
8.90121e-07
1.73703e-07
7.04904e-07
7.73727e-07
7.53484e-07
6.63986e-07
7.44084e-07
7.63639e-07
7.58035e-07
6.91248e-07
5.32632e-08
7.76797e-07
5.53273e-08
7.00938e-07
3.59243e-08
7.01055e-07
3.73253e-08
4.16608e-07
8.39624e-07
8.44115e-07
5.19238e-07
6.16637e-07
7.01106e-07
7.29288e-07
7.49879e-07
7.5344e-07
5.82179e-07
6.57249e-07
7.35455e-07
7.56064e-07
5.48047e-07
5.58639e-08
7.73875e-07
5.31828e-08
7.01027e-07
3.76809e-08
7.0019e-07
3.58805e-08
8.26685e-07
2.78199e-07
6.17909e-07
5.96521e-07
6.43646e-07
1.78414e-07
5.69831e-07
7.69396e-07
7.68352e-07
7.17499e-07
7.36224e-07
7.67591e-07
7.70223e-07
7.33746e-07
5.23411e-08
7.73242e-07
5.19866e-08
6.99962e-07
3.53944e-08
6.97809e-07
3.52794e-08
7.63066e-07
3.96911e-07
4.5679e-07
4.52924e-07
5.0659e-07
2.58905e-07
5.67678e-07
7.31158e-07
7.59222e-07
5.07035e-07
7.45486e-07
6.8715e-07
7.63017e-07
5.57858e-07
5.19805e-08
1.38936e-07
5.20168e-08
6.92639e-07
3.52535e-08
9.60039e-08
3.50726e-08
7.21554e-07
6.02656e-07
4.66276e-07
5.89538e-07
5.87436e-07
8.05822e-07
8.28762e-07
7.61356e-07
7.45891e-07
7.11153e-07
6.99642e-07
7.61076e-07
7.51981e-07
6.35561e-07
1.83713e-07
5.23111e-08
1.83832e-07
5.97024e-08
1.29508e-07
3.53486e-08
1.29567e-07
6.6333e-07
8.41968e-07
7.07379e-07
8.10983e-07
6.99738e-07
8.47532e-07
8.80782e-07
7.61342e-07
7.58729e-07
7.30539e-07
7.20013e-07
7.56861e-07
7.56472e-07
6.60034e-07
1.83831e-07
1.83278e-07
1.84017e-07
3.51391e-08
1.29566e-07
1.29232e-07
1.29658e-07
1.6485e-07
1.49893e-07
3.68627e-08
5.66407e-08
5.44067e-08
1.1641e-07
2.08846e-07
7.70156e-07
6.11032e-07
6.97262e-07
6.97445e-07
6.98916e-07
7.71655e-07
6.96885e-07
2.52484e-07
3.97778e-08
2.06637e-07
5.98606e-08
5.85915e-08
2.80099e-07
1.84691e-07
7.679e-07
7.31429e-07
7.66257e-07
7.1966e-07
7.40402e-07
7.68593e-07
7.67454e-07
1.64875e-07
5.67395e-08
2.09818e-07
5.4576e-08
5.45047e-08
1.64961e-07
2.09187e-07
7.70853e-07
6.83505e-07
6.73664e-07
7.70027e-07
6.69485e-07
7.70999e-07
7.70107e-07
2.51931e-07
5.99478e-08
5.87733e-08
2.79699e-07
5.86953e-08
2.79864e-07
2.51566e-07
7.65336e-07
4.17412e-07
6.43331e-08
7.23281e-08
5.05442e-07
9.34999e-08
6.91755e-07
7.68102e-07
6.96431e-07
6.94303e-07
7.49357e-07
7.57603e-07
7.6953e-07
6.979e-07
7.72019e-07
1.16343e-07
6.98526e-07
3.63338e-07
1.64882e-07
7.74131e-07
6.96833e-07
7.09791e-07
7.25306e-07
7.68617e-07
6.63623e-07
7.66957e-07
6.64475e-07
6.92597e-07
7.6305e-07
7.27093e-08
4.86554e-07
9.36288e-08
4.94815e-07
9.35653e-08
7.60857e-07
7.64399e-07
6.78489e-07
7.49707e-07
7.68582e-07
7.46338e-07
7.68648e-07
7.63545e-07
7.70457e-07
3.60694e-07
1.65053e-07
7.74031e-07
1.64978e-07
7.74188e-07
7.71714e-07
7.72853e-07
7.0032e-07
6.9819e-07
7.68317e-07
7.74968e-07
7.73515e-07
6.98862e-07
7.72569e-07
6.65154e-07
7.0052e-07
7.69914e-07
7.08136e-07
7.74192e-07
6.97666e-07
7.739e-07
7.00472e-07