/*--------------------------------*- C++ -*----------------------------------*\
| =========                 |                                                 |
| \\      /  F ield         | OpenFOAM: The Open Source CFD Toolbox           |
|  \\    /   O peration     | Version:  5.0                                   |
|   \\  /    A nd           | Web:      www.OpenFOAM.org                      |
|    \\/     M anipulation  |                                                 |
\*---------------------------------------------------------------------------*/
FoamFile
{
    version     2.0;
    format      ascii;
    class       volVectorField;
    location    "2.5";
    object      U;
}
// * * * * * * * * * * * * * * * * * * * * * * * * * * * * * * * * * * * * * //

dimensions      [0 1 -1 0 0 0 0];

internalField   nonuniform List<vector> 
9851
(
(-0.00322173 -0.00378368 0.000355753)
(0.00654665 -0.0156989 -0.000209197)
(0.0204619 0.0184298 0.00477656)
(0.0471979 0.0260821 0.00657881)
(0.00059463 0.00122888 0.00039057)
(0.00190646 0.0101174 0.000247587)
(0.000656636 4.68471e-05 3.40912e-06)
(0.000861576 4.76994e-05 -2.42295e-06)
(0.000811896 3.21819e-05 -1.18651e-07)
(0.000803573 1.93422e-05 4.6511e-08)
(0.000797936 1.22519e-05 8.88536e-08)
(0.000794985 7.49974e-06 6.29607e-08)
(0.000793282 4.69546e-06 8.82956e-09)
(0.00079158 2.98469e-06 6.92346e-08)
(0.000789907 1.85258e-06 4.63092e-08)
(0.00078848 1.17129e-06 1.51522e-07)
(0.000787051 6.79409e-07 5.15592e-08)
(0.000785435 5.65925e-07 8.08945e-08)
(0.000783804 2.2941e-07 5.73707e-08)
(0.000782265 1.04394e-07 1.52155e-07)
(0.000780899 -2.26639e-08 4.90189e-08)
(0.000779418 1.48583e-07 2.17401e-08)
(0.000777934 1.08138e-07 6.4941e-08)
(0.000776413 9.11302e-08 4.83973e-08)
(0.000774701 3.53779e-07 6.69015e-08)
(0.000773634 7.05672e-07 8.16126e-08)
(0.000772427 3.93702e-07 4.81509e-08)
(0.000770912 1.63017e-07 4.52928e-08)
(0.000769177 1.85749e-07 1.25846e-07)
(0.000767561 -1.12769e-07 1.81273e-07)
(0.000766087 -4.65441e-07 7.3688e-08)
(0.000764454 -5.46491e-07 3.68894e-08)
(0.000763094 -4.43313e-07 7.87998e-08)
(0.000761847 -2.22068e-07 4.43281e-08)
(0.000760502 -6.35269e-08 4.1369e-08)
(0.000758975 -3.55776e-08 4.53765e-08)
(0.000757408 4.09254e-08 3.4009e-08)
(0.000755746 1.77461e-07 3.69011e-08)
(0.000754872 5.04043e-07 8.9489e-08)
(0.000753821 1.80997e-07 1.16072e-07)
(0.000752039 6.06327e-08 3.13106e-08)
(0.000750622 4.56855e-08 7.96907e-08)
(0.000749655 -5.2957e-07 7.90806e-08)
(0.000747916 -5.20778e-07 -8.07326e-09)
(0.000746129 -2.51968e-07 3.21581e-08)
(0.000744929 -2.31e-08 -1.15093e-07)
(0.000743857 9.6763e-08 5.61451e-08)
(0.000742748 -5.73653e-08 5.78462e-08)
(0.000741003 -2.48696e-07 3.35366e-08)
(0.000739405 -3.03257e-07 9.67117e-09)
(0.00538186 -0.0141744 0.000901441)
(0.00471378 0.0160445 -0.000751872)
(-0.0176185 0.0119955 -0.003472)
(-0.0569847 -0.012217 -0.00520877)
(-0.000827158 0.0067745 0.00298982)
(-0.000801577 0.00125197 -4.90923e-06)
(0.000366086 6.10258e-05 1.1012e-05)
(0.000794789 6.66355e-05 -1.98376e-06)
(0.000782978 5.48924e-05 -1.10944e-07)
(0.000785256 2.09995e-05 2.34191e-08)
(0.000788555 1.26837e-05 5.35807e-08)
(0.000789425 6.73957e-06 4.93757e-08)
(0.000789872 3.87814e-06 5.31287e-08)
(0.000789547 2.15534e-06 5.00878e-08)
(0.000788916 1.26306e-06 4.97371e-08)
(0.000787801 7.08922e-07 3.25078e-08)
(0.000786633 4.69169e-07 4.40434e-08)
(0.000785219 1.54406e-07 1.29013e-08)
(0.000783642 3.19587e-07 3.96929e-08)
(0.000782283 1.61255e-07 2.39236e-08)
(0.000780869 2.18028e-07 3.6071e-08)
(0.000779403 1.80005e-07 6.32017e-08)
(0.000777832 4.07585e-07 1.27388e-07)
(0.000776686 3.42696e-07 4.91163e-08)
(0.000775625 4.00618e-07 -1.55607e-08)
(0.000773523 4.03202e-07 3.45768e-08)
(0.00077155 4.19089e-08 2.74219e-08)
(0.000770377 -1.50875e-07 4.64603e-08)
(0.000768901 -5.73308e-07 7.60091e-08)
(0.000767169 -4.6922e-07 7.48468e-08)
(0.000765827 -3.73346e-07 -1.21221e-07)
(0.00076457 -2.03388e-07 1.67224e-08)
(0.000763359 2.73294e-07 1.19261e-07)
(0.000762248 3.12856e-07 1.09017e-07)
(0.000760665 1.42806e-07 4.32789e-08)
(0.000759118 1.54346e-07 3.35805e-08)
(0.000757842 1.77039e-07 4.23708e-08)
(0.000756609 3.49172e-07 2.78419e-09)
(0.00075473 6.11502e-07 6.84444e-08)
(0.00075294 2.98569e-07 1.13275e-07)
(0.000751718 2.00131e-07 5.61043e-08)
(0.000750115 -1.02918e-09 2.24515e-08)
(0.000748777 -2.39458e-07 7.46971e-08)
(0.000748178 -6.75121e-07 8.13624e-08)
(0.00074705 -8.72396e-08 5.91418e-08)
(0.000745385 6.55854e-08 6.00581e-08)
(0.000743779 3.14807e-07 5.96252e-08)
(0.000742336 3.27865e-08 -3.231e-08)
(0.000740889 -2.04883e-07 -6.96202e-08)
(0.000739752 -1.90188e-07 1.04191e-07)
(-0.024967 0.0189697 0.00197844)
(0.013359 0.00225675 -0.000394532)
(0.000777568 -0.0108339 -0.00144953)
(-0.0211743 0.0141862 0.00165003)
(0.00847622 0.00227468 0.000952667)
(-0.0011612 6.33711e-05 4.86079e-05)
(0.000586331 -3.05786e-05 -1.25043e-05)
(0.000370564 2.5326e-05 -4.8361e-08)
(0.000797748 1.84903e-05 -1.14888e-06)
(0.000750904 1.84731e-06 -4.42854e-07)
(0.000780038 2.35943e-06 2.2871e-07)
(0.000783935 1.04738e-06 7.20899e-08)
(0.000787529 5.59256e-07 6.79133e-08)
(0.000788297 2.53399e-07 5.52259e-08)
(0.000788092 6.62726e-08 5.44682e-08)
(0.000787484 -1.2162e-07 5.42409e-08)
(0.000786356 -2.09869e-07 3.4726e-08)
(0.000785246 -3.68828e-07 1.12587e-07)
(0.000783811 -3.48218e-07 1.10067e-07)
(0.000782136 -1.65307e-07 4.20021e-08)
(0.00078092 -5.9513e-08 3.15276e-08)
(0.000779651 -2.30882e-08 4.60443e-08)
(0.000778134 5.25808e-09 2.699e-08)
(0.0007764 4.93743e-08 6.21046e-08)
(0.000774773 -1.98572e-07 3.60909e-08)
(0.000773182 -3.6104e-07 1.08216e-07)
(0.000771734 -1.77694e-07 5.96243e-08)
(0.000770146 -8.06372e-08 5.3181e-08)
(0.000768783 -1.01629e-07 6.84439e-09)
(0.000767816 2.30455e-07 3.93525e-09)
(0.000766423 4.06563e-07 2.58775e-07)
(0.000765263 4.32469e-07 6.04606e-08)
(0.000763738 4.4882e-07 -8.82108e-10)
(0.000761681 3.25028e-07 1.34352e-08)
(0.000760301 1.29305e-07 8.82105e-08)
(0.000759016 1.52542e-07 5.14139e-08)
(0.00075765 8.69345e-08 5.36952e-08)
(0.000756285 -1.86358e-08 4.80831e-08)
(0.000754805 -1.77489e-07 2.66152e-08)
(0.000753303 -2.81014e-08 5.0943e-08)
(0.000751663 -4.54405e-08 7.02281e-08)
(0.000750073 1.29862e-07 6.04396e-08)
(0.000748816 5.35719e-07 6.83914e-08)
(0.00074811 6.36779e-07 1.41914e-07)
(0.000747059 2.53678e-07 8.28136e-08)
(0.000745432 1.4512e-07 5.02836e-08)
(0.000743816 1.49367e-07 5.3579e-08)
(0.000742099 3.31076e-07 7.58791e-08)
(0.00074073 7.24404e-08 5.83635e-08)
(0.000739896 9.14889e-08 1.15086e-07)
(-0.012233 0.00340073 0.00059804)
(-0.0302256 0.00683971 -0.000439465)
(0.0271615 -0.0261982 0.000237611)
(0.00484603 -0.0122884 9.49635e-05)
(-0.00385215 -0.000716119 0.000124577)
(0.000624739 -0.00420137 4.02971e-05)
(0.00101568 -0.000215848 7.84748e-05)
(0.000384871 -5.86464e-05 -1.45833e-06)
(0.000833798 -2.99847e-05 -1.12002e-06)
(0.000765178 -1.87902e-05 -5.00611e-07)
(0.00078758 -9.50324e-06 1.75251e-07)
(0.000787187 -5.26123e-06 -3.2797e-08)
(0.000788887 -3.09045e-06 4.99626e-08)
(0.000788936 -1.81705e-06 5.08218e-08)
(0.000788451 -1.06591e-06 4.98903e-08)
(0.000787459 -6.46643e-07 4.99913e-08)
(0.000786327 -5.14634e-07 5.97864e-08)
(0.000785049 -3.13483e-07 4.6202e-08)
(0.000783899 -4.25894e-07 2.87746e-08)
(0.000782646 -2.15264e-07 2.62738e-08)
(0.000781048 -1.69692e-07 5.8821e-08)
(0.000779484 -1.92094e-07 4.8948e-08)
(0.000777922 -2.72303e-07 2.99623e-08)
(0.000776432 -2.02882e-07 5.66339e-08)
(0.000775113 -1.43134e-07 2.14687e-07)
(0.000773551 1.05923e-08 9.05948e-08)
(0.000771902 2.18991e-07 5.93698e-08)
(0.000770474 3.86906e-07 6.27511e-08)
(0.000769289 7.00642e-07 -2.4006e-08)
(0.000767802 5.0574e-07 4.33243e-08)
(0.000766074 3.78578e-07 1.01554e-07)
(0.000764618 5.18705e-07 5.69916e-08)
(0.000763221 2.98104e-08 5.54921e-08)
(0.000761846 1.16942e-08 4.67779e-08)
(0.000760448 1.08421e-07 -2.10755e-08)
(0.000759064 7.48887e-08 2.04232e-07)
(0.000757628 2.01719e-08 1.79945e-07)
(0.000756278 -5.13884e-08 5.30262e-08)
(0.000754718 -2.03858e-07 1.43876e-08)
(0.000753105 -2.11582e-07 -3.44576e-08)
(0.000751915 -1.28701e-07 6.04495e-08)
(0.000750839 1.28239e-07 8.36565e-08)
(0.000749406 3.32575e-07 1.88144e-07)
(0.00074782 6.49923e-07 -8.91832e-08)
(0.000746431 1.73943e-07 4.69764e-08)
(0.000745251 7.91763e-08 4.26799e-08)
(0.000744008 5.82342e-08 5.81517e-08)
(0.000742237 3.33765e-07 4.23076e-08)
(0.000740586 2.51826e-07 4.54499e-08)
(0.000739547 2.60027e-07 1.65884e-07)
(0.000933152 0.00570267 0.000589332)
(-0.00670559 -0.00198094 0.000708131)
(-0.00797019 -0.0363425 -0.000548208)
(-0.00903274 0.00648952 -0.00148698)
(0.00168055 -0.00430838 0.00123583)
(-0.000182533 -0.00350819 2.30465e-05)
(0.00107732 0.000158091 1.18231e-05)
(0.000476055 -3.94615e-05 2.09111e-06)
(0.000881378 -3.55094e-05 -3.378e-07)
(0.000776757 -2.29097e-05 -8.62051e-07)
(0.000797058 -1.2933e-05 2.39485e-07)
(0.000792011 -7.99876e-06 7.91959e-08)
(0.000791868 -4.68927e-06 1.02151e-07)
(0.000790849 -2.88415e-06 5.01353e-08)
(0.000789567 -1.80124e-06 4.36294e-09)
(0.00078818 -1.08055e-06 5.78911e-08)
(0.000786777 -5.85095e-07 4.88912e-08)
(0.000785361 -3.43455e-07 4.96171e-08)
(0.000783937 -1.0358e-07 7.97338e-08)
(0.00078246 -1.73846e-07 9.59492e-08)
(0.000780952 -2.04753e-07 6.4051e-08)
(0.000779526 -5.59523e-08 2.81737e-07)
(0.000778123 1.39929e-08 2.81097e-07)
(0.000776564 3.74281e-08 1.01226e-07)
(0.000775041 5.95357e-08 1.69499e-07)
(0.000773635 -2.84479e-07 8.48655e-08)
(0.000772202 6.60855e-08 6.6203e-08)
(0.000770743 2.10759e-07 5.82399e-08)
(0.000768925 4.03661e-07 2.37222e-07)
(0.000767406 4.80684e-07 3.32499e-08)
(0.000766433 2.64439e-07 4.9329e-08)
(0.000764822 3.07519e-08 3.77394e-08)
(0.000763101 2.18331e-07 3.36742e-08)
(0.000761778 1.64282e-07 4.58522e-08)
(0.000760379 1.88927e-07 4.94756e-08)
(0.000758905 6.40264e-08 4.59652e-08)
(0.000757492 2.16148e-08 7.89406e-09)
(0.000756006 -8.40653e-09 6.11433e-08)
(0.000754606 -8.13125e-08 4.3913e-08)
(0.000753399 -2.03228e-08 6.42227e-08)
(0.000752088 2.24837e-07 2.5106e-08)
(0.000750647 2.13778e-07 4.01156e-07)
(0.000749465 9.12266e-08 7.89263e-09)
(0.000747907 4.13935e-08 7.29264e-08)
(0.000746342 -4.61391e-08 1.06979e-07)
(0.000745286 -1.85577e-07 4.91506e-08)
(0.000744133 -4.77692e-07 1.29421e-08)
(0.000742339 -8.87455e-07 1.69886e-09)
(0.000740631 -3.18663e-07 7.44275e-08)
(0.000739259 2.99478e-08 5.13708e-08)
(0.00701832 -0.00975792 -0.000928741)
(0.00540514 4.69082e-05 -0.000977783)
(-0.0154051 0.000129829 -0.00374477)
(-0.00409211 0.00118933 -0.00194854)
(-0.00647085 0.0109206 -0.000394738)
(0.0210289 0.00164279 0.000805025)
(0.00120993 -0.000150871 8.99413e-06)
(0.000565108 -4.19302e-05 2.76163e-06)
(0.000907674 -2.99685e-05 -6.43733e-07)
(0.000793453 -1.60389e-05 -8.16987e-07)
(0.000806326 -1.06489e-05 2.16137e-07)
(0.000797556 -6.75047e-06 1.05343e-07)
(0.000795322 -4.19128e-06 9.71963e-08)
(0.000792571 -2.66676e-06 4.45729e-08)
(0.000790722 -1.72471e-06 6.95309e-08)
(0.00078899 -1.06673e-06 5.39143e-08)
(0.000787255 -6.76632e-07 4.83918e-08)
(0.000785654 -3.73329e-07 6.27549e-08)
(0.000784112 -2.47081e-07 2.05107e-08)
(0.000782521 -1.57467e-08 4.20403e-08)
(0.000781195 1.19817e-07 1.13638e-07)
(0.000779758 1.07007e-07 5.93973e-08)
(0.00077804 4.48112e-08 6.97665e-08)
(0.000776488 5.24986e-08 5.96735e-08)
(0.000774712 8.3596e-08 5.28794e-08)
(0.000773559 2.18832e-07 -1.62832e-08)
(0.000772521 -7.23776e-09 3.88538e-08)
(0.000770894 -1.09178e-07 9.27731e-09)
(0.000769623 -1.70846e-08 2.68264e-08)
(0.000767624 -1.87323e-07 -1.08458e-07)
(0.00076551 -1.8325e-07 3.55816e-09)
(0.000764558 -2.21023e-07 1.72385e-07)
(0.000763387 -1.61774e-07 6.29549e-09)
(0.000761807 -8.44651e-08 -3.96771e-07)
(0.000760321 -1.03054e-07 1.88698e-08)
(0.000758854 3.58712e-09 1.43595e-07)
(0.000757537 7.06758e-08 1.77308e-08)
(0.00075615 1.03324e-07 5.24521e-08)
(0.000754704 2.28691e-07 6.02964e-08)
(0.000753488 2.22578e-07 6.41919e-08)
(0.000752206 2.18577e-07 5.11486e-08)
(0.000750671 3.80283e-07 2.65331e-07)
(0.00074919 2.30583e-07 2.85857e-08)
(0.000747649 -4.00237e-09 3.7254e-08)
(0.000746149 -3.96695e-08 3.98911e-08)
(0.000744715 -1.83541e-07 4.33945e-08)
(0.000743135 -5.12067e-07 -6.7348e-08)
(0.000742441 -7.53552e-07 6.42426e-08)
(0.000741734 -4.9688e-07 8.79727e-08)
(0.000739909 -3.26004e-07 1.21246e-07)
(-0.0256908 -0.00686151 0.000720859)
(0.01348 0.0254132 -0.00452567)
(0.00253388 0.00482119 -0.000148206)
(-0.00216472 -0.0165949 0.00109269)
(0.000839192 -0.00514842 0.00104284)
(-0.00720497 0.00897074 -3.93434e-05)
(0.00132798 0.000359973 2.43521e-05)
(0.000501422 -1.6555e-05 4.95096e-07)
(0.000887738 -2.35856e-06 -1.48843e-06)
(0.0008011 -1.68544e-06 -6.60596e-07)
(0.000808741 -3.71136e-06 1.56648e-07)
(0.000800132 -2.87062e-06 6.72373e-09)
(0.000797005 -2.25212e-06 4.91197e-08)
(0.000793952 -1.51303e-06 4.66887e-08)
(0.000791581 -1.01831e-06 5.09259e-08)
(0.0007895 -6.34367e-07 4.94196e-08)
(0.00078765 -4.06065e-07 4.98271e-08)
(0.000785901 -1.68378e-07 4.13785e-08)
(0.000784386 -6.68118e-08 4.45461e-08)
(0.000782918 2.86269e-08 4.76063e-08)
(0.000781104 1.81445e-07 -3.245e-08)
(0.000779432 6.36991e-08 4.64207e-08)
(0.000778055 7.07708e-08 4.4996e-08)
(0.000776612 4.79862e-08 4.77362e-08)
(0.000775248 1.137e-07 1.56199e-08)
(0.000773521 2.76528e-07 1.05622e-07)
(0.000771792 -6.00796e-08 7.23756e-08)
(0.000770732 -2.69985e-07 4.25409e-08)
(0.00076883 -7.05724e-07 -5.00617e-08)
(0.000767201 -8.80223e-07 1.03319e-07)
(0.000766393 -5.3059e-07 -4.4048e-08)
(0.000764853 -9.87625e-08 2.02316e-07)
(0.000763274 -9.253e-09 3.86097e-08)
(0.000761853 -6.36467e-08 6.67429e-08)
(0.00076049 -7.4529e-08 6.18827e-08)
(0.000759123 1.10716e-08 6.83608e-08)
(0.000757616 7.89593e-08 4.52887e-08)
(0.000756203 1.14151e-07 4.1154e-08)
(0.000754754 8.53695e-08 3.75565e-08)
(0.000753384 1.78982e-07 1.47907e-08)
(0.000752283 -9.65406e-09 6.21353e-08)
(0.000750661 -2.53256e-07 -2.60253e-08)
(0.000748983 -1.48419e-07 5.13405e-08)
(0.000747569 -2.43267e-07 5.35218e-08)
(0.000746119 -8.23541e-08 1.0778e-08)
(0.000744698 -1.56084e-08 4.89198e-08)
(0.000743425 -1.60101e-08 1.25391e-07)
(0.000742364 1.79755e-07 2.66578e-08)
(0.000741175 -2.42997e-07 5.8032e-08)
(0.000740285 -3.01086e-07 6.03631e-08)
(-0.00147578 0.00423871 -0.000586236)
(-0.00751924 -0.0314356 -0.000688347)
(-0.00958695 0.0108418 -0.00277401)
(-0.0187653 0.0251937 0.000571686)
(0.0195144 -0.00015062 0.000657762)
(-0.0128229 -0.00545181 -0.000474865)
(0.000690322 7.60284e-06 0.000108037)
(0.00045183 3.31389e-05 5.23969e-07)
(0.000856368 -1.2412e-05 -8.13088e-07)
(0.000791729 7.80141e-07 -4.57264e-07)
(0.000804853 -1.34521e-06 2.15226e-07)
(0.000799396 -4.75566e-07 4.3362e-08)
(0.000797031 -3.21562e-07 6.08261e-08)
(0.000794123 -1.55742e-07 4.99589e-08)
(0.000791826 2.78992e-08 5.34873e-08)
(0.000789758 5.73326e-09 5.14076e-08)
(0.000787839 1.22047e-07 1.3568e-07)
(0.000786079 1.51061e-07 6.11419e-08)
(0.000784359 2.23044e-07 8.17892e-08)
(0.000782831 7.20028e-08 5.1821e-08)
(0.00078124 -6.96964e-08 4.59941e-08)
(0.000779619 -2.61446e-08 4.74113e-08)
(0.00077802 -1.19601e-07 3.78516e-08)
(0.000776542 -1.33571e-07 4.55388e-08)
(0.000774996 -3.07531e-07 6.34751e-08)
(0.000773341 -4.05891e-07 4.40159e-08)
(0.000771838 -1.44423e-07 -2.03049e-07)
(0.00077009 -1.34804e-07 4.28058e-08)
(0.000768866 -2.68783e-07 1.09505e-07)
(0.000767849 2.63561e-07 -1.72029e-07)
(0.000766492 3.15491e-07 7.87953e-08)
(0.000765212 6.61771e-08 2.96734e-08)
(0.000763432 -3.45593e-09 3.86768e-08)
(0.000761726 1.45853e-07 4.36956e-08)
(0.000760416 7.12597e-08 4.49298e-08)
(0.000759046 -4.09439e-08 3.43422e-08)
(0.000757666 -9.35822e-08 5.46238e-08)
(0.000756158 -1.9503e-07 3.8543e-08)
(0.000754784 -6.3677e-08 4.05975e-08)
(0.000753368 -5.41267e-08 4.7677e-08)
(0.000751666 -1.02759e-07 2.11187e-08)
(0.000750499 -1.12297e-07 5.88237e-08)
(0.000749205 2.25387e-08 6.79309e-08)
(0.000747734 -8.61199e-08 4.36871e-08)
(0.000746435 -5.25047e-08 6.06396e-08)
(0.000744799 6.10247e-08 4.53089e-08)
(0.000743381 4.4694e-07 4.25583e-08)
(0.000742158 3.41153e-07 5.24824e-08)
(0.000741142 2.41647e-07 9.96083e-08)
(0.000740588 -3.83433e-08 -3.21151e-08)
(0.0192237 0.00441557 -1.18229e-05)
(0.00151926 -0.00348429 -0.00830994)
(-0.015035 -0.000507745 -0.00215231)
(-0.011641 0.000746321 0.000490297)
(0.0243438 0.0035304 9.24454e-05)
(0.00668223 -0.00225428 -0.000154419)
(0.000417689 1.4676e-05 6.53518e-05)
(0.000879167 1.26711e-05 -2.19626e-06)
(0.000820358 -1.29751e-05 -4.04773e-07)
(0.000814925 3.40354e-06 -1.41376e-08)
(0.000807164 2.03322e-06 4.64717e-09)
(0.000801409 2.32228e-06 -5.20855e-08)
(0.000797401 1.6867e-06 4.0017e-08)
(0.000794386 1.1591e-06 4.49493e-08)
(0.00079178 9.00694e-07 4.3503e-08)
(0.000789615 6.65249e-07 7.93251e-08)
(0.00078783 5.2162e-07 6.40181e-08)
(0.000786026 3.14736e-07 3.43708e-08)
(0.000784286 2.892e-07 4.89587e-08)
(0.000782552 2.06133e-07 8.57527e-08)
(0.000780982 1.05485e-07 4.81174e-08)
(0.00077937 -1.33242e-07 -2.23401e-08)
(0.000777922 -1.9816e-07 3.09091e-08)
(0.00077638 -2.25919e-07 5.18833e-08)
(0.000774911 -3.28443e-07 5.08988e-08)
(0.000773728 -3.36681e-07 5.53292e-08)
(0.000772133 -2.22014e-07 2.17939e-08)
(0.000770578 -2.31538e-08 1.86513e-07)
(0.000769328 2.17941e-07 8.89739e-08)
(0.000767931 2.81853e-07 -1.65626e-08)
(0.000766145 3.25029e-07 1.08677e-08)
(0.000764452 1.82032e-07 7.57024e-08)
(0.000763373 -2.14584e-07 -2.50571e-07)
(0.000761945 -2.03596e-07 6.23467e-08)
(0.000760257 -1.80176e-07 3.44546e-08)
(0.000758917 -1.92062e-07 3.92969e-08)
(0.000757425 -2.28434e-07 -6.37386e-08)
(0.000756241 -2.64569e-07 4.97842e-08)
(0.000754931 -3.30611e-07 7.75215e-08)
(0.000753336 -3.11555e-07 3.93697e-08)
(0.000752211 -2.30375e-07 6.10985e-08)
(0.000750818 -1.36069e-07 4.4523e-09)
(0.000749017 5.10432e-08 2.92322e-08)
(0.000747476 8.58721e-08 3.84483e-08)
(0.000746304 1.26783e-07 6.50059e-08)
(0.000745321 7.91653e-08 4.62179e-08)
(0.000743772 2.47572e-07 2.0633e-08)
(0.000742104 4.33989e-07 4.21381e-08)
(0.0007407 7.37915e-07 -6.85322e-08)
(0.000740028 4.82907e-07 8.58574e-08)
(-0.0007168 0.00439496 -0.000421077)
(0.0031471 -0.00422161 0.000656163)
(-0.00128469 -0.0165606 0.000556499)
(0.00335539 0.0104222 -0.000482422)
(-0.013183 0.0170067 0.00550974)
(-0.0196191 -0.00457948 -0.00032662)
(0.000380771 -8.2412e-05 1.31141e-05)
(0.00085947 1.95386e-05 -2.26e-06)
(0.000818676 1.77605e-05 5.71136e-08)
(0.000810327 1.30477e-05 8.05169e-08)
(0.000803456 8.81374e-06 1.14133e-07)
(0.000798932 5.74771e-06 3.03209e-07)
(0.000795554 3.72516e-06 4.5384e-08)
(0.000793125 2.48422e-06 -1.04768e-07)
(0.000791198 1.49966e-06 5.18154e-08)
(0.000789277 9.98715e-07 9.92779e-08)
(0.000787396 6.00049e-07 4.7658e-08)
(0.000785785 3.81345e-07 3.67727e-07)
(0.000784221 1.30344e-07 6.75709e-08)
(0.0007826 -2.24668e-09 1.46673e-08)
(0.000780815 -9.84569e-08 1.98036e-08)
(0.000779241 -6.87727e-08 5.84011e-08)
(0.000777906 -6.04929e-08 5.58818e-08)
(0.000776382 -5.87423e-08 4.39606e-08)
(0.000774861 -3.35495e-08 7.07222e-08)
(0.000773478 -2.26735e-07 -6.26628e-08)
(0.000772233 -1.09239e-07 4.84355e-08)
(0.00077064 7.95039e-09 4.6061e-08)
(0.000769246 1.58534e-07 1.08902e-07)
(0.000767981 -1.12758e-07 4.59452e-08)
(0.000766364 -1.37473e-07 1.05065e-07)
(0.000764537 -1.60471e-07 -2.21659e-08)
(0.000762951 -1.37875e-07 -7.30267e-08)
(0.000761772 -3.85937e-07 3.18733e-08)
(0.000760432 -2.19433e-07 9.89103e-08)
(0.000758988 -1.91878e-07 6.49202e-08)
(0.000757577 -1.74304e-07 5.73159e-08)
(0.000756032 -2.06077e-07 4.88819e-08)
(0.000754729 -5.72658e-07 5.25632e-08)
(0.000753497 -2.55438e-07 5.81129e-08)
(0.000751888 -1.87248e-07 4.42952e-08)
(0.000750852 -3.95195e-07 9.52637e-08)
(0.000749483 -3.46238e-07 3.81493e-08)
(0.000747828 1.1532e-07 4.85918e-08)
(0.000746425 5.47101e-09 2.21731e-08)
(0.000744948 -2.2245e-08 3.86154e-08)
(0.00074382 -3.07914e-07 2.44131e-08)
(0.000742766 4.58477e-08 3.69705e-08)
(0.000741188 2.08289e-07 -3.79219e-08)
(0.000739065 2.94508e-07 6.42623e-08)
(-0.00551254 -0.0022409 0.00107874)
(0.000288525 -0.0123163 0.00246738)
(0.034776 -0.0196455 -0.00286677)
(0.00123089 -0.0325221 0.0266781)
(-0.00290958 -0.0141633 0.00147771)
(0.0116154 0.00263422 0.00150424)
(0.00174088 0.000114919 4.84751e-06)
(0.00141736 6.98166e-05 3.34451e-07)
(0.00134334 4.78746e-05 3.34543e-07)
(0.00133368 2.87331e-05 3.58213e-07)
(0.00132643 1.82616e-05 3.66778e-07)
(0.00132261 1.1113e-05 2.7428e-07)
(0.00132047 6.9611e-06 2.81389e-07)
(0.00131793 4.50874e-06 3.55232e-07)
(0.00131525 2.7829e-06 3.33592e-07)
(0.00131293 1.73424e-06 4.20263e-07)
(0.00131058 1.00922e-06 3.32327e-07)
(0.00130797 8.43965e-07 3.46339e-07)
(0.00130524 3.3438e-07 3.8007e-07)
(0.00130271 1.27972e-07 4.00632e-07)
(0.00130046 1.51131e-09 3.10018e-07)
(0.00129792 3.28802e-07 5.2417e-08)
(0.00129542 2.50032e-07 3.10534e-07)
(0.00129293 1.85307e-07 2.83296e-07)
(0.0012901 6.48462e-07 3.28409e-07)
(0.00128824 1.20033e-06 3.28695e-07)
(0.00128622 6.89715e-07 2.78127e-07)
(0.00128378 2.69764e-07 3.25341e-07)
(0.00128084 3.01178e-07 4.09582e-07)
(0.00127804 -2.6587e-07 4.82285e-07)
(0.00127562 -8.97053e-07 3.48121e-07)
(0.00127286 -9.39891e-07 2.22683e-07)
(0.00127063 -7.23995e-07 3.31598e-07)
(0.00126869 -3.34175e-07 3.81447e-07)
(0.00126643 -3.41192e-08 3.0938e-07)
(0.00126383 1.34366e-11 3.13544e-07)
(0.00126119 8.20891e-08 3.0162e-07)
(0.00125842 3.06436e-07 2.99234e-07)
(0.00125688 8.6156e-07 2.98117e-07)
(0.00125515 3.77061e-07 3.81469e-07)
(0.00125227 1.20059e-07 2.77041e-07)
(0.00124987 7.60255e-08 3.32655e-07)
(0.00124827 -8.1974e-07 3.52969e-07)
(0.00124539 -7.8596e-07 1.7073e-07)
(0.00124244 -4.11225e-07 2.94759e-07)
(0.00124044 -1.06115e-07 9.81273e-08)
(0.00123856 7.38869e-08 2.80171e-07)
(0.00123671 -1.89571e-07 3.18219e-07)
(0.00123378 -4.39118e-07 3.23152e-07)
(0.00123104 -4.94242e-07 2.17967e-07)
(0.00167662 0.00122527 0.00125653)
(0.0122284 0.0149354 0.00229704)
(-0.0177796 -0.0209294 0.000650655)
(-0.0161618 -0.0298176 0.000511277)
(-0.00647568 -0.00410728 0.0351774)
(-0.00379458 -5.9437e-05 0.000402404)
(0.00121493 0.000275116 1.00815e-05)
(0.00132408 9.11174e-05 3.28887e-07)
(0.00130332 8.07213e-05 3.88714e-07)
(0.0013075 2.91722e-05 3.27018e-07)
(0.00131316 1.77804e-05 3.28146e-07)
(0.0013147 9.29895e-06 3.2896e-07)
(0.00131549 5.33491e-06 3.29897e-07)
(0.00131494 2.86962e-06 3.28922e-07)
(0.00131383 1.67466e-06 3.28904e-07)
(0.00131198 8.954e-07 2.86001e-07)
(0.00131003 6.42615e-07 3.26155e-07)
(0.00130766 1.88138e-07 2.81197e-07)
(0.00130505 4.9652e-07 2.97951e-07)
(0.00130277 2.73041e-07 2.94292e-07)
(0.00130042 3.793e-07 9.78444e-09)
(0.00129794 3.06687e-07 3.32713e-07)
(0.00129525 7.43924e-07 3.96933e-07)
(0.00129339 6.49459e-07 5.33295e-07)
(0.00129158 7.30607e-07 1.25333e-07)
(0.00128806 6.91087e-07 3.24239e-07)
(0.0012848 1.12079e-07 3.08118e-07)
(0.00128283 -2.66489e-07 3.20302e-07)
(0.00128032 -1.07445e-06 3.19682e-07)
(0.00127736 -8.40591e-07 3.51748e-07)
(0.00127525 -6.45687e-07 5.51323e-08)
(0.00127324 -3.70572e-07 2.5912e-07)
(0.00127117 5.29437e-07 4.58041e-07)
(0.0012693 6.1916e-07 4.3904e-07)
(0.00126664 2.61008e-07 3.06874e-07)
(0.001264 2.61914e-07 3.04215e-07)
(0.00126186 3.15986e-07 3.02973e-07)
(0.00125981 5.8919e-07 6.50669e-08)
(0.00125672 1.0235e-06 3.96628e-07)
(0.00125375 5.58434e-07 9.17572e-07)
(0.00125166 3.11113e-07 3.29499e-07)
(0.00124903 -5.3535e-08 1.8113e-08)
(0.00124683 -4.55269e-07 2.93605e-07)
(0.00124576 -1.10063e-06 3.61802e-07)
(0.00124381 -1.86803e-07 3.35523e-07)
(0.00124107 2.16023e-08 2.95669e-07)
(0.00123848 4.62411e-07 4.31137e-07)
(0.00123608 1.94801e-08 2.08121e-07)
(0.00123366 -3.83047e-07 5.81487e-08)
(0.00123178 -3.385e-07 3.92492e-07)
(0.0361219 -0.0147472 -0.0045317)
(0.0418771 -0.00930208 -0.0121275)
(0.00621305 -0.00535052 -0.000312466)
(-0.102153 0.0104324 0.0166268)
(-0.0277445 -0.00169944 0.0051165)
(-0.00102602 0.000388989 0.000329644)
(0.000478756 0.000543074 -3.24153e-05)
(0.00113505 4.32849e-05 1.0646e-06)
(0.00133623 2.28508e-05 -3.1859e-07)
(0.00125526 -1.28616e-06 3.09767e-07)
(0.00130148 1.37805e-06 3.26099e-07)
(0.00130699 2.77343e-07 3.33142e-07)
(0.0013124 5.61151e-08 3.28266e-07)
(0.00131333 -1.04158e-07 3.29356e-07)
(0.00131277 -1.9408e-07 3.29047e-07)
(0.00131164 -3.51695e-07 3.28023e-07)
(0.00130969 -4.30995e-07 2.94312e-07)
(0.00130779 -6.33778e-07 3.50649e-07)
(0.00130534 -6.03457e-07 3.68944e-07)
(0.00130256 -2.95546e-07 3.16803e-07)
(0.0013005 -1.27606e-07 2.60188e-07)
(0.00129837 -6.21297e-08 3.2344e-07)
(0.00129585 2.19494e-08 3.23101e-07)
(0.00129291 1.25918e-07 2.9301e-07)
(0.00129015 -3.59252e-07 2.9401e-07)
(0.00128746 -5.59473e-07 4.12935e-07)
(0.00128502 -2.78403e-07 3.27257e-07)
(0.0012823 -1.10044e-07 3.17619e-07)
(0.00128012 -1.68016e-07 1.93889e-07)
(0.00127859 4.57926e-07 1.94389e-07)
(0.00127621 8.1043e-07 5.4119e-07)
(0.00127433 8.05085e-07 4.44138e-07)
(0.00127186 7.45146e-07 2.16061e-07)
(0.00126835 5.48996e-07 1.8344e-07)
(0.00126598 1.75076e-07 3.61212e-07)
(0.00126389 2.36157e-07 3.28092e-07)
(0.0012616 1.66988e-07 2.74769e-07)
(0.0012593 -6.33011e-09 3.34642e-07)
(0.00125683 -2.4877e-07 2.99482e-07)
(0.00125425 -3.36522e-08 3.66273e-07)
(0.0012515 -4.50797e-08 3.59587e-07)
(0.00124891 2.36133e-07 3.56907e-07)
(0.00124697 9.52804e-07 4.12248e-07)
(0.00124574 1.05059e-06 3.4883e-07)
(0.00124385 5.10112e-07 3.06103e-07)
(0.00124125 3.28795e-07 3.05944e-07)
(0.00123856 3.27177e-07 3.53508e-07)
(0.00123565 5.57181e-07 3.38911e-07)
(0.00123334 1.51223e-07 3.22621e-07)
(0.00123193 1.55442e-07 4.89574e-07)
(-0.035486 -0.0149075 0.00228894)
(-0.0168976 -0.038986 -0.0325232)
(0.0092152 0.0568737 -0.0103077)
(-0.010813 0.0112773 -0.00113879)
(0.000756458 0.00371118 0.000955325)
(0.0024764 0.00662553 0.000126013)
(0.0013358 -0.000781678 8.60261e-06)
(0.00119635 -0.000182139 4.90814e-07)
(0.00140009 -5.0312e-05 2.90325e-07)
(0.00128087 -3.17708e-05 4.81427e-07)
(0.00131517 -1.62373e-05 3.30852e-07)
(0.00131307 -9.04664e-06 2.90362e-07)
(0.00131503 -5.38828e-06 3.25487e-07)
(0.00131463 -3.16666e-06 3.29514e-07)
(0.00131352 -1.84057e-06 3.28822e-07)
(0.00131169 -1.09804e-06 3.28756e-07)
(0.00130969 -8.89849e-07 3.4002e-07)
(0.00130745 -5.41443e-07 2.74349e-07)
(0.00130547 -7.5303e-07 3.18907e-07)
(0.00130337 -4.19371e-07 2.92304e-07)
(0.00130072 -3.44733e-07 2.34245e-07)
(0.00129812 -3.40565e-07 3.28158e-07)
(0.00129549 -5.22997e-07 3.17199e-07)
(0.00129291 -4.06979e-07 3.82925e-07)
(0.00129072 -3.157e-07 4.90363e-07)
(0.00128817 -3.91931e-08 5.61541e-07)
(0.00128537 3.46982e-07 3.87618e-07)
(0.00128297 6.88472e-07 3.99013e-07)
(0.00128102 1.32933e-06 2.68327e-07)
(0.00127858 9.57962e-07 3.00987e-07)
(0.00127567 7.74217e-07 3.93967e-07)
(0.00127315 1.00224e-06 2.57381e-07)
(0.00127084 1.45855e-07 3.26198e-07)
(0.00126858 2.65625e-08 3.15925e-07)
(0.00126625 2.01274e-07 2.04018e-07)
(0.00126399 1.25345e-07 4.96741e-07)
(0.00126156 1.91569e-08 4.6856e-07)
(0.00125929 -9.09751e-08 3.3758e-07)
(0.00125669 -3.875e-07 1.83726e-07)
(0.001254 -3.8064e-07 1.9768e-07)
(0.001252 -1.72537e-07 2.94421e-07)
(0.00125027 3.07998e-07 3.7039e-07)
(0.00124784 6.4222e-07 6.43196e-07)
(0.0012452 1.05866e-06 -1.39893e-08)
(0.0012429 3.02615e-07 3.11385e-07)
(0.00124084 1.44919e-07 3.09596e-07)
(0.00123876 7.10212e-08 3.25184e-07)
(0.00123585 4.80428e-07 2.99621e-07)
(0.00123315 4.01857e-07 3.52365e-07)
(0.00123139 4.3183e-07 5.36078e-07)
(-0.00716177 -0.00321619 0.00253422)
(0.0089355 -0.00336076 0.00054543)
(-0.0345252 -0.00840439 -0.0122009)
(0.0161947 -0.00493829 -0.00595151)
(-0.00557272 -0.00908682 0.00408463)
(-0.00128639 -0.000523717 -0.000208104)
(0.00102482 0.00110446 -3.64163e-05)
(0.00138778 -9.77112e-05 5.91086e-06)
(0.0014755 -5.31779e-05 4.94727e-07)
(0.00129828 -3.51318e-05 3.65229e-07)
(0.00133007 -1.99327e-05 3.53862e-07)
(0.00132065 -1.24657e-05 8.64979e-07)
(0.00131981 -7.28445e-06 4.45956e-07)
(0.0013178 -4.53807e-06 3.30623e-07)
(0.00131537 -2.89125e-06 3.10426e-07)
(0.00131284 -1.76054e-06 3.40617e-07)
(0.0013104 -9.53975e-07 3.27934e-07)
(0.00130797 -5.76781e-07 3.25715e-07)
(0.0013055 -1.53454e-07 3.18039e-07)
(0.00130307 -2.24224e-07 3.65177e-07)
(0.0013006 -2.72095e-07 3.63613e-07)
(0.00129815 -9.0916e-08 1.02715e-06)
(0.00129577 1.78604e-09 5.96211e-07)
(0.00129317 2.52946e-08 3.7236e-07)
(0.00129061 1.17552e-07 3.65548e-07)
(0.00128829 -4.86181e-07 3.98352e-07)
(0.00128593 1.00346e-07 3.75619e-07)
(0.00128352 3.51395e-07 3.19141e-07)
(0.00128045 6.88076e-07 4.9488e-07)
(0.00127788 7.83101e-07 2.97122e-07)
(0.00127625 4.25086e-07 2.95744e-07)
(0.00127354 3.3458e-08 3.17223e-07)
(0.00127064 4.03963e-07 2.99393e-07)
(0.00126842 2.49215e-07 3.15524e-07)
(0.00126611 3.30433e-07 3.39421e-07)
(0.00126367 9.5343e-08 3.12645e-07)
(0.00126132 -1.13449e-08 2.27681e-08)
(0.00125879 -5.7129e-08 2.996e-07)
(0.00125648 -1.74486e-07 3.15618e-07)
(0.00125452 -6.16e-08 1.1327e-07)
(0.00125236 3.48888e-07 2.9366e-07)
(0.00124992 3.9796e-07 1.08268e-06)
(0.0012479 1.28862e-07 1.26373e-07)
(0.0012453 3.95748e-08 2.50264e-07)
(0.0012427 -1.80614e-07 3.91286e-07)
(0.00124096 -3.56871e-07 3.09651e-07)
(0.00123898 -8.29497e-07 1.13235e-07)
(0.00123606 -1.4119e-06 2.78702e-07)
(0.00123327 -5.12364e-07 4.88407e-07)
(0.0012309 6.48174e-08 3.2229e-07)
(0.000489288 0.00587481 -0.00490289)
(0.00585694 0.00763553 -0.0149412)
(-0.028575 0.00212128 0.00979933)
(-0.0278086 -0.023471 0.0236357)
(0.00637735 0.00890098 -0.000722702)
(0.0169474 -0.00558803 0.0025651)
(0.00200647 0.000592652 -0.000236006)
(0.00156552 -9.59692e-05 5.43835e-06)
(0.00151281 -4.28879e-05 4.84973e-07)
(0.00132247 -2.27488e-05 3.87667e-07)
(0.00134367 -1.53671e-05 2.95952e-07)
(0.00132899 -9.8306e-06 4.42593e-07)
(0.001325 -6.07932e-06 4.19511e-07)
(0.00132017 -3.92528e-06 3.30505e-07)
(0.00131702 -2.59565e-06 3.51107e-07)
(0.00131413 -1.62904e-06 3.25286e-07)
(0.00131118 -1.02123e-06 3.28361e-07)
(0.00130845 -5.65796e-07 3.61279e-07)
(0.00130592 -3.53837e-07 2.99296e-07)
(0.00130322 2.92522e-08 3.38497e-07)
(0.00130088 1.86683e-07 4.49132e-07)
(0.00129847 1.75852e-07 4.16122e-07)
(0.00129564 9.37441e-08 3.12165e-07)
(0.00129306 9.41226e-08 3.49559e-07)