/*--------------------------------*- C++ -*----------------------------------*\
| =========                 |                                                 |
| \\      /  F ield         | OpenFOAM: The Open Source CFD Toolbox           |
|  \\    /   O peration     | Version:  5.0                                   |
|   \\  /    A nd           | Web:      www.OpenFOAM.org                      |
|    \\/     M anipulation  |                                                 |
\*---------------------------------------------------------------------------*/
FoamFile
{
    version     2.0;
    format      ascii;
    class       volVectorField;
    location    "2.5";
    object      U_0;
}
// * * * * * * * * * * * * * * * * * * * * * * * * * * * * * * * * * * * * * //

dimensions      [0 1 -1 0 0 0 0];

internalField   nonuniform List<vector> 
9851
(
(-0.00428919 -0.00278653 0.000423439)
(0.00630923 -0.0250068 -0.000106956)
(0.0105306 0.0144437 0.00792432)
(0.0128299 -0.00106057 0.00473007)
(0.00348866 0.00176795 -7.67464e-05)
(0.000663491 0.00872934 0.000185056)
(0.000416699 -5.32964e-05 2.28759e-06)
(0.000759575 -4.35737e-05 -2.31083e-06)
(0.000758056 -2.25116e-05 -1.7752e-07)
(0.000772275 -1.38897e-05 1.40442e-07)
(0.000778367 -8.10059e-06 7.06502e-08)
(0.000781674 -5.10867e-06 6.43105e-08)
(0.000783885 -3.09168e-06 -4.55471e-09)
(0.000783939 -1.49355e-06 7.25006e-08)
(0.000782951 -9.63439e-07 4.93051e-08)
(0.000782069 -7.37007e-07 8.5031e-09)
(0.000780979 -4.36642e-07 5.05747e-08)
(0.000779782 -1.93946e-07 -6.50017e-08)
(0.000778019 -2.16659e-07 5.86118e-08)
(0.00077674 -3.12268e-07 7.64213e-08)
(0.000775562 -1.15949e-07 6.97459e-08)
(0.000773835 6.39353e-08 2.59423e-08)
(0.000772325 -4.94271e-08 -4.74379e-09)
(0.000770846 -7.60947e-08 4.80773e-08)
(0.000769222 1.83857e-07 9.64107e-09)
(0.000767755 2.16234e-07 3.96163e-08)
(0.000766388 2.51141e-07 6.01651e-08)
(0.000765006 1.11643e-07 4.55562e-08)
(0.000763184 2.76243e-07 9.01644e-08)
(0.000761394 -2.17108e-07 7.3829e-08)
(0.000760033 -6.74873e-07 -6.20743e-08)
(0.000758362 -5.58807e-07 -1.93519e-08)
(0.000756985 -4.47876e-07 7.44236e-08)
(0.000756002 -2.57434e-07 4.84077e-08)
(0.000754503 2.26185e-08 3.88095e-08)
(0.000752816 -3.4958e-08 4.20205e-08)
(0.000751308 -2.4864e-08 4.82788e-08)
(0.000749791 4.93127e-08 1.72579e-08)
(0.000748332 3.08301e-07 5.93002e-08)
(0.000747247 3.66139e-07 6.52039e-08)
(0.000746067 3.849e-08 3.03112e-08)
(0.00074448 7.34182e-09 5.9053e-08)
(0.000743239 -1.99449e-07 8.79393e-08)
(0.000741735 -2.47303e-07 2.39202e-07)
(0.000740072 -1.10756e-07 3.45063e-08)
(0.000738802 -1.25819e-07 5.71063e-08)
(0.000737571 -2.92868e-07 5.06175e-08)
(0.000736356 -5.04075e-07 1.6028e-07)
(0.000734634 -3.34567e-07 -2.59882e-08)
(0.000732811 -2.17958e-07 6.26747e-08)
(0.00502769 -0.00405992 0.000643257)
(0.00643396 0.0175309 0.000295698)
(-0.024139 0.0107947 0.000124628)
(-0.0647361 -0.0409974 -0.00668607)
(0.00382155 0.00664945 0.00113861)
(-0.000509214 0.00034264 -5.8477e-05)
(0.000355448 -4.41835e-05 1.11187e-05)
(0.000807951 -6.83432e-05 -1.94933e-06)
(0.000785874 -1.9713e-05 -1.67676e-07)
(0.000785552 -2.21057e-05 2.32474e-08)
(0.000786947 -1.27895e-05 4.25181e-08)
(0.00078667 -8.44958e-06 4.73128e-08)
(0.000786375 -5.22908e-06 5.10322e-08)
(0.000785432 -3.6072e-06 4.50347e-08)
(0.000784155 -2.18988e-06 4.77045e-08)
(0.000782842 -1.42725e-06 8.52908e-08)
(0.000781484 -6.12899e-07 4.47488e-08)
(0.000779909 -3.11023e-07 2.27584e-08)
(0.000778514 7.18185e-08 4.24969e-08)
(0.000777083 1.78033e-07 2.75027e-08)
(0.000775511 1.86132e-07 6.47492e-08)
(0.000773804 1.20191e-07 1.39154e-08)
(0.000772135 4.53816e-07 2.50287e-09)
(0.000771073 3.79484e-07 3.04746e-08)
(0.00076967 3.62746e-07 5.25506e-08)
(0.000767843 1.48434e-07 9.19006e-08)
(0.000766171 -5.03138e-08 5.41141e-08)
(0.000764816 -2.44263e-07 4.3658e-08)
(0.000762951 -8.72697e-07 5.8762e-09)
(0.00076083 -5.58203e-07 -7.97822e-08)
(0.000759775 -4.86583e-07 1.26654e-07)
(0.000758742 -2.82701e-07 3.09166e-08)
(0.000757381 3.04671e-07 2.02272e-07)
(0.000756206 4.81156e-07 1.91092e-07)
(0.000754506 6.28061e-08 4.30992e-08)
(0.000752753 1.18795e-07 3.47023e-08)
(0.00075155 1.80292e-07 4.17376e-08)
(0.00075017 2.09823e-07 5.18654e-08)
(0.000748566 3.38199e-07 1.85226e-08)
(0.000746945 4.0407e-07 3.06766e-08)
(0.000745566 7.57198e-08 5.62157e-08)
(0.000744191 -2.4703e-07 3.01453e-08)
(0.000742823 -5.62411e-07 2.05493e-08)
(0.000741721 -3.86551e-07 1.41531e-07)
(0.000740336 -1.56968e-07 4.59272e-08)
(0.000738684 -7.32848e-08 2.28566e-08)
(0.000737406 4.74738e-08 5.3426e-08)
(0.000736167 -1.3571e-07 5.11388e-08)
(0.000734647 -3.62453e-07 9.08273e-08)
(0.00073374 -2.40598e-07 2.66557e-08)
(0.0191005 0.0240424 -0.00320426)
(0.0115507 0.00886441 -0.00324243)
(0.00820141 -0.0152331 -0.00203579)
(-0.0138508 0.0245852 0.00639315)
(0.00387712 0.00129485 0.000519683)
(-0.000860974 -0.000379469 5.52794e-05)
(0.00067435 -0.00015043 -8.42309e-06)
(0.000443673 -4.66974e-05 -2.47593e-07)
(0.000852062 -3.20551e-05 -1.38717e-06)
(0.000781125 -2.79602e-05 -3.71492e-07)
(0.000795429 -1.53968e-05 2.10603e-07)
(0.000791117 -9.50384e-06 1.28203e-07)
(0.000789935 -5.84248e-06 6.44213e-08)
(0.000787737 -3.63989e-06 5.41855e-08)
(0.000785677 -2.229e-06 5.46463e-08)
(0.00078404 -1.32362e-06 5.63924e-08)
(0.000782374 -8.77524e-07 -6.0611e-08)
(0.000780636 -5.43434e-07 5.28477e-08)
(0.000778629 -3.51292e-07 9.95067e-08)
(0.00077688 -1.68927e-07 3.64045e-08)
(0.000775487 -1.3572e-07 5.02626e-08)
(0.000774166 -6.85232e-08 4.44542e-08)
(0.000772645 9.89028e-08 8.05589e-08)
(0.000770727 1.05159e-07 -1.01247e-07)
(0.000768929 -3.41872e-07 1.15476e-07)
(0.000767236 -1.98504e-07 1.23361e-08)
(0.000765897 -2.83297e-07 3.7365e-08)
(0.000763981 -2.33649e-07 6.35059e-08)
(0.000762796 -3.28225e-07 -1.22322e-07)
(0.000761882 2.83822e-07 4.70937e-08)
(0.000760381 6.84546e-07 7.81015e-08)
(0.000759352 6.64977e-07 6.64523e-08)
(0.000757937 4.10127e-07 2.81993e-07)
(0.000755696 3.23462e-07 1.3566e-07)
(0.000754048 -1.80515e-09 8.97162e-08)
(0.000752961 1.58774e-07 5.06908e-08)
(0.000751419 1.48987e-07 5.15941e-08)
(0.000749985 5.3418e-08 4.28204e-08)
(0.000748571 9.78317e-08 4.41991e-08)
(0.000746915 8.2124e-08 6.76067e-08)
(0.000745252 1.20376e-07 4.68608e-08)
(0.000743684 8.62121e-08 6.55011e-08)
(0.000743069 5.26576e-07 3.55199e-08)
(0.000742245 2.42242e-07 7.74962e-08)
(0.000740467 1.11913e-07 4.54439e-08)
(0.000739059 1.5504e-07 1.1783e-07)
(0.000737494 3.75407e-07 1.20961e-07)
(0.000735844 1.98605e-07 7.4944e-08)
(0.000734509 1.94941e-07 5.79258e-08)
(0.000733562 9.19086e-08 6.7342e-08)
(-0.0203173 0.00594781 0.00121567)
(-0.0316758 -0.00821752 0.000427615)
(0.0375107 -0.0241023 -0.00018218)
(0.00503334 -0.0114423 0.000169091)
(-0.00289278 -5.03435e-05 0.000164233)
(0.00115524 -0.00426013 4.05858e-05)
(0.00128487 -0.000258934 8.04909e-05)
(0.000495492 -6.71179e-05 -7.75744e-07)
(0.000909224 -3.13723e-05 -1.45788e-06)
(0.000806591 -2.0957e-05 -5.15073e-07)
(0.000810092 -1.13545e-05 1.47737e-07)
(0.000798652 -6.56e-06 -3.14663e-07)
(0.000793728 -4.18324e-06 1.74015e-08)
(0.000789963 -2.47312e-06 5.00286e-08)
(0.000787059 -1.37014e-06 4.66703e-08)
(0.000784537 -7.8639e-07 4.5577e-08)
(0.000782463 -7.46118e-07 5.41837e-08)
(0.00078057 -5.9106e-07 4.15646e-08)
(0.000778984 -6.82519e-07 2.77041e-08)
(0.000777354 -4.32501e-07 2.4705e-08)
(0.000775637 -3.99201e-07 7.37349e-08)
(0.000774097 -3.19578e-07 4.76837e-08)
(0.000772352 -6.00602e-07 -6.73431e-09)
(0.000770523 -4.53801e-07 5.5689e-08)
(0.000769291 -4.27693e-07 -5.96253e-09)
(0.000767918 -1.73742e-07 7.0849e-08)
(0.000766129 1.01427e-07 5.86334e-08)
(0.000764762 2.56523e-07 7.64984e-08)
(0.000763597 9.19025e-07 7.50585e-08)
(0.000762093 6.07982e-07 2.77995e-08)
(0.000760247 7.32078e-07 1.11294e-08)
(0.000758394 6.90641e-07 -2.01212e-08)
(0.00075695 1.90939e-07 4.38375e-08)
(0.000755689 -8.40934e-08 4.71143e-08)
(0.000754299 1.84863e-07 3.99818e-08)
(0.000752941 9.20484e-08 3.82443e-08)
(0.000751417 3.41379e-08 3.51138e-08)
(0.000750105 4.71729e-08 5.12718e-08)
(0.000748601 -2.25233e-07 1.07011e-08)
(0.000746973 -1.20512e-07 4.03392e-08)
(0.00074557 8.25209e-08 4.31953e-08)
(0.000744697 2.92967e-07 2.03352e-07)
(0.000743014 5.70163e-07 4.05737e-08)
(0.000741198 2.7628e-07 1.17784e-08)
(0.000740223 5.09352e-08 2.98937e-08)
(0.00073901 4.1389e-08 4.03746e-08)
(0.000737458 7.8014e-09 5.67118e-08)
(0.000735939 8.27173e-08 2.96368e-08)
(0.00073451 2.17703e-07 3.94284e-08)
(0.000733381 2.21999e-07 4.20961e-08)
(0.00343496 0.00608449 0.00049811)
(-0.0103528 -0.00212086 0.000705233)
(-0.0020925 -0.0430995 -0.000768226)
(-0.00835198 0.00173956 -0.00151392)
(0.00111132 -0.00277119 0.000585199)
(0.000676792 -0.00331507 1.42567e-05)
(0.00134437 0.000378239 9.12163e-06)
(0.000566081 1.43232e-05 2.3737e-06)
(0.000934575 7.25673e-06 -6.79169e-07)
(0.000806457 6.72054e-07 -7.21125e-07)
(0.000813539 5.56003e-07 2.15241e-07)
(0.000800145 -2.69283e-07 4.04315e-08)
(0.000795081 4.34921e-08 2.04698e-07)
(0.000791276 -2.0025e-07 5.11728e-08)
(0.000787798 -4.01531e-07 1.53813e-08)
(0.000784828 -3.50634e-07 3.97353e-08)
(0.000782623 -1.39008e-07 4.88344e-08)
(0.00078072 -1.23753e-07 4.91836e-08)
(0.000778831 4.41569e-08 2.11593e-07)
(0.000777238 1.65444e-08 9.87586e-08)
(0.000775632 2.97589e-08 6.05625e-08)
(0.000773918 -1.25813e-08 1.11382e-08)
(0.000772482 -7.02139e-08 6.505e-08)
(0.000770947 -2.47075e-09 9.76882e-08)
(0.000769282 2.05682e-07 7.67541e-08)
(0.000767899 -6.04081e-08 2.86318e-08)
(0.000766433 1.11567e-07 6.5925e-08)
(0.000764998 1.66813e-07 3.16602e-08)
(0.000763229 1.68906e-07 -5.3993e-10)
(0.00076164 7.19418e-08 3.89599e-08)
(0.000760477 -1.91822e-08 5.32356e-08)
(0.00075867 -2.61469e-07 4.30622e-08)
(0.000756966 1.27208e-07 3.77171e-08)
(0.000755687 7.26007e-08 4.79204e-08)
(0.000754267 1.36368e-07 6.76257e-08)
(0.000752772 1.6374e-08 4.46837e-08)
(0.000751363 -7.4648e-09 3.1184e-08)
(0.000749662 -4.64593e-08 5.87924e-08)
(0.000748363 -9.24188e-08 9.44463e-08)
(0.000747301 -1.57276e-08 8.80025e-08)
(0.000745769 1.23415e-07 7.01938e-08)
(0.00074429 4.19126e-07 1.66098e-07)
(0.000743044 1.1266e-07 6.14564e-08)
(0.000741593 1.16934e-07 2.6126e-08)
(0.000740171 -8.46102e-09 4.82279e-08)
(0.000739004 -1.63372e-07 4.45819e-08)
(0.000737545 -3.88155e-07 -1.53663e-08)
(0.000736106 -3.37846e-07 -1.43599e-07)
(0.000734677 -2.30769e-07 7.42066e-08)
(0.000733015 9.56253e-08 8.85366e-08)
(0.00875163 -0.014026 -0.00123451)
(-0.00463862 0.00293361 -0.00121576)
(-0.0152642 -0.00129944 -0.003286)
(-0.00312031 0.00510539 0.000547062)
(0.00432926 0.0202073 -6.82101e-07)
(0.0188944 0.0022935 0.000788975)
(0.00119019 0.000192932 9.47598e-06)
(0.000588571 3.75426e-05 3.00408e-06)
(0.000917153 2.81303e-05 -7.15351e-07)
(0.000798273 1.86054e-05 -7.81771e-07)
(0.00080899 1.04329e-05 2.17724e-07)
(0.000798059 6.06409e-06 1.29173e-08)
(0.000793847 3.81709e-06 6.68332e-08)
(0.000789427 2.09472e-06 4.49846e-08)
(0.000786885 9.94733e-07 1.62063e-07)
(0.000784875 5.1221e-07 8.27833e-08)
(0.000782753 3.50645e-07 4.9786e-08)
(0.000780802 2.30984e-07 6.17224e-08)
(0.000779161 1.63103e-07 2.33934e-08)
(0.000777337 1.83063e-07 4.72699e-08)
(0.000775601 1.29544e-07 -9.72742e-08)
(0.000773972 1.66525e-07 1.01332e-07)
(0.000772365 1.84145e-07 1.75655e-07)
(0.000770868 1.45101e-07 6.10986e-08)
(0.000769219 1.76745e-07 -1.55639e-08)
(0.0007678 2.01097e-07 2.81148e-08)
(0.000766413 1.35363e-08 3.68719e-08)
(0.000764831 -1.25032e-07 1.28712e-08)
(0.000763476 -1.29153e-07 4.03557e-08)
(0.000761856 -2.1103e-07 5.75937e-08)
(0.000759829 -4.90768e-07 -8.23779e-09)
(0.000758575 -3.71886e-07 -2.75041e-08)
(0.000757367 -2.51985e-07 1.0629e-08)
(0.000755699 -1.22387e-07 5.27059e-08)
(0.000754228 -1.52373e-07 4.30843e-08)
(0.000752761 -1.50648e-08 4.49429e-08)
(0.000751339 7.93679e-09 5.57501e-08)
(0.00075 5.79941e-08 8.71644e-08)
(0.00074864 2.72327e-07 6.82622e-08)
(0.000747243 1.68092e-07 -6.47292e-08)
(0.000746113 2.26596e-07 9.41829e-08)
(0.000744682 2.63124e-07 -3.20269e-08)
(0.000742636 2.37442e-07 1.41699e-08)
(0.000741048 5.60425e-08 5.68154e-08)
(0.000739874 1.99933e-08 3.82021e-08)
(0.000738539 -1.70291e-07 4.51444e-08)
(0.000737243 -5.43399e-07 -3.37235e-07)
(0.000736139 -5.66051e-07 4.95284e-08)
(0.000735053 -5.04886e-07 9.30116e-08)
(0.000733549 -2.20359e-07 1.72239e-07)
(-0.0255926 -0.00780218 0.000668212)
(0.0131069 0.0186832 -0.00148609)
(0.00699694 0.00656389 0.00103857)
(-0.00764971 -0.0175819 0.00171439)
(0.000752599 -0.00595853 0.00112866)
(-0.00716776 0.00865794 -3.09439e-05)
(0.00119282 0.00046706 2.86699e-05)
(0.00047475 3.97636e-05 9.3504e-07)
(0.000864528 4.37401e-05 -1.33476e-06)
(0.0007845 2.89992e-05 -6.42238e-07)
(0.000797894 1.61997e-05 1.75133e-07)
(0.0007919 9.80102e-06 -1.39431e-08)
(0.000790137 5.56712e-06 5.1839e-08)
(0.00078776 3.45024e-06 4.86406e-08)
(0.000785829 2.1703e-06 5.40856e-08)
(0.00078403 1.41217e-06 5.14804e-08)
(0.000782276 9.15539e-07 4.86786e-08)
(0.000780488 6.59696e-07 3.77129e-08)
(0.000778771 4.48743e-07 4.27312e-08)
(0.000777196 1.71226e-07 7.0343e-08)
(0.00077561 1.75596e-07 6.7895e-08)
(0.000773986 1.28171e-07 4.47808e-08)
(0.000772454 2.78745e-07 -4.3183e-08)
(0.000770937 1.68004e-07 4.54537e-08)
(0.000769351 1.8972e-07 1.38345e-07)
(0.000767694 3.31745e-07 1.88167e-07)
(0.000766025 5.67414e-08 5.22275e-08)
(0.000764821 -8.91109e-10 6.76699e-08)
(0.000763123 -3.46865e-07 5.30116e-08)
(0.000761191 -6.41313e-07 2.09232e-08)
(0.000760279 -2.37844e-07 1.48618e-07)
(0.000758972 3.9193e-09 7.6067e-08)
(0.00075728 -7.12933e-08 5.12019e-08)
(0.000755814 -6.85965e-08 2.91834e-08)
(0.000754402 -5.17866e-08 1.62074e-07)
(0.000752973 8.07424e-08 1.2041e-07)
(0.000751454 1.08043e-07 4.6576e-08)
(0.000749992 1.09724e-07 3.19453e-08)
(0.000748499 1.77428e-07 4.53868e-08)
(0.000747243 3.57388e-07 1.37663e-08)
(0.000745886 7.50888e-08 4.19991e-08)
(0.000744302 -2.69396e-07 5.37742e-09)
(0.000742784 -3.24907e-07 5.39137e-08)
(0.000741321 -1.69454e-07 4.82371e-08)
(0.000739889 -7.04743e-08 2.49532e-09)
(0.000738302 -9.75093e-09 4.75053e-08)
(0.000737055 -2.90317e-08 3.90736e-08)
(0.000736159 -3.16071e-07 6.1861e-08)
(0.000735118 -2.30952e-07 4.22959e-08)
(0.00073392 -2.78358e-07 7.50846e-08)
(-0.00128225 0.00674386 -0.000735197)
(-0.0126774 -0.0271839 -0.00196921)
(-0.00853802 0.0180399 -0.00792745)
(-0.0234138 0.0273086 0.000780133)
(0.0192763 -0.00217268 0.000609216)
(-0.0140054 -0.00546998 -0.000424259)
(0.000564674 -4.75861e-05 9.37561e-05)
(0.000410875 5.67463e-05 7.37644e-07)
(0.000819119 1.60453e-05 -6.03724e-07)
(0.000763748 2.1029e-05 -4.84657e-07)
(0.00078497 1.21986e-05 2.33876e-07)
(0.000784763 8.38067e-06 5.0075e-08)
(0.000785906 5.31504e-06 6.57217e-08)
(0.000785181 3.349e-06 5.09613e-08)
(0.000784337 2.23092e-06 5.36419e-08)
(0.000783306 1.33557e-06 5.15926e-08)
(0.000781811 7.4371e-07 1.11328e-07)
(0.000780218 4.30949e-07 5.183e-08)
(0.000778551 2.35779e-07 7.84421e-08)
(0.000776995 2.25834e-07 2.0786e-08)
(0.000775548 1.01075e-07 4.75439e-08)
(0.000774101 6.6173e-08 5.38511e-08)
(0.000772414 -6.59553e-08 2.40535e-08)
(0.000770756 -4.51415e-08 4.49661e-08)
(0.000769422 -1.70295e-07 7.31755e-08)
(0.000767633 -2.26898e-07 4.23008e-08)
(0.000765996 2.17519e-08 -1.19667e-08)
(0.000764329 1.00079e-07 6.05184e-08)
(0.00076268 -9.76147e-08 2.70246e-08)
(0.000761998 3.85146e-07 7.76308e-08)
(0.00076064 4.91037e-07 8.22278e-08)
(0.000758786 2.19757e-07 4.82467e-08)
(0.000757278 3.16461e-07 4.66836e-08)
(0.000755724 1.05406e-07 5.05262e-08)
(0.000754415 7.61053e-08 3.97322e-08)
(0.000752961 -9.6651e-08 3.83978e-08)
(0.000751375 -8.10625e-08 1.45329e-08)
(0.000750086 -1.22728e-07 5.26724e-08)
(0.000748948 8.72363e-08 3.62805e-08)
(0.000747114 1.11861e-07 6.71859e-08)
(0.000745329 -8.77638e-08 1.05588e-08)
(0.000744183 -1.01933e-07 4.54516e-08)
(0.000742763 -1.94805e-07 -1.71836e-08)
(0.000741367 -1.92091e-07 4.83456e-08)
(0.000740075 -4.72574e-08 5.34287e-08)
(0.000738591 1.02092e-07 4.33811e-08)
(0.000736862 4.5241e-07 5.47687e-08)
(0.000735889 6.00359e-07 6.9209e-08)
(0.000735109 1.90183e-07 5.13625e-08)
(0.000734184 -9.81914e-09 1.02555e-07)
(0.0219884 0.00413753 -8.29271e-05)
(-0.00661603 -0.00531575 -0.00885354)
(-0.00173127 0.0122461 9.92188e-05)
(-0.0095253 -0.003865 0.000329527)
(0.03165 0.00520536 0.000325677)
(0.00737925 -0.00329382 -0.00012767)
(0.000390611 -1.1499e-06 6.48874e-05)
(0.00082661 4.26956e-05 -2.52349e-06)
(0.000774478 3.46561e-06 -5.3055e-07)
(0.000779603 1.21774e-05 -3.34847e-08)
(0.000782053 6.74203e-06 3.54689e-08)
(0.000783277 5.08083e-06 1.58662e-08)
(0.000783832 3.32358e-06 3.81728e-08)
(0.000783895 1.88347e-06 4.83141e-08)
(0.000783305 1.42367e-06 4.58964e-08)
(0.000782166 9.991e-07 1.34323e-07)
(0.000781143 5.37635e-07 1.01929e-07)
(0.000779852 2.01438e-07 2.93974e-08)
(0.000778514 7.50512e-08 5.49193e-08)
(0.000777028 2.93425e-07 8.34502e-08)
(0.000775411 4.63144e-08 4.63925e-08)
(0.000773778 -1.11002e-07 7.55299e-08)
(0.000772316 -2.58007e-07 5.117e-08)
(0.000770809 -1.94597e-07 4.99012e-08)
(0.000769126 -2.37386e-07 1.02876e-08)
(0.000767936 -2.89066e-07 5.58206e-08)
(0.000766436 -1.36153e-07 2.14121e-08)
(0.000764673 -4.39163e-08 4.36249e-08)
(0.000763479 2.29941e-07 1.00335e-07)
(0.000761926 5.02658e-07 3.08712e-08)
(0.00076007 2.47353e-07 1.59166e-07)
(0.000758751 1.51379e-07 4.1545e-08)
(0.000757136 -1.81664e-08 8.22419e-08)
(0.000755513 -7.00314e-08 -2.28905e-08)
(0.00075415 -1.05395e-07 3.45504e-08)
(0.000752777 -2.20932e-07 7.15653e-08)
(0.000751423 -2.24701e-07 4.93849e-08)
(0.000750203 -1.65995e-07 4.36249e-08)
(0.000748793 -4.91142e-07 8.12202e-08)
(0.000747024 -7.89923e-07 3.46222e-08)
(0.000745619 -3.5737e-07 5.0378e-08)
(0.00074417 -2.43284e-07 -2.93512e-08)
(0.000742673 -1.14881e-07 5.49324e-08)
(0.000741506 5.75805e-08 4.63821e-08)
(0.000740257 7.77783e-08 4.81174e-08)
(0.000738926 1.43902e-07 2.79727e-09)
(0.000737675 3.34647e-07 3.75899e-08)
(0.000735828 9.59387e-07 2.58136e-08)
(0.000734355 6.01347e-07 -1.09667e-07)
(0.000733692 3.08782e-07 8.81067e-08)
(-0.00251462 0.00516198 -0.000289076)
(-0.0016946 -0.00700664 0.00108892)
(0.00315974 -0.00924067 0.0004238)
(0.00341593 0.00943543 -0.00147656)
(-0.0101702 0.017814 0.00770379)
(-0.00596024 -0.00165402 -0.000113703)
(0.000347758 -4.89577e-06 1.31022e-05)
(0.000742168 1.62477e-05 -1.77488e-06)
(0.000749081 7.22439e-06 2.27345e-08)
(0.00076764 3.42716e-06 1.0467e-07)
(0.000776033 1.51272e-06 1.06995e-07)
(0.000780448 5.6488e-07 5.28925e-08)
(0.000781881 2.80223e-07 5.5097e-08)
(0.000782788 6.36612e-07 6.57921e-08)
(0.00078322 3.34374e-07 4.95258e-08)
(0.00078219 3.65865e-07 3.00114e-08)
(0.000780809 2.64663e-07 4.34359e-08)
(0.000779637 2.4015e-07 9.19897e-08)
(0.000778664 2.11819e-07 8.16261e-08)
(0.000776958 -1.54428e-07 8.80044e-09)
(0.000775042 -1.75501e-08 8.34294e-08)
(0.000773722 -3.33116e-08 5.05259e-08)
(0.000772312 2.85962e-08 5.39858e-08)
(0.000770784 -2.5642e-08 4.44943e-08)
(0.000769308 5.84967e-08 4.59402e-08)
(0.000767762 5.11083e-08 4.81297e-08)
(0.000766305 -8.6401e-08 1.07915e-07)
(0.000764788 1.26926e-08 4.36719e-08)
(0.000763362 1.80439e-07 -6.96352e-08)
(0.000762017 -2.23895e-07 1.22416e-07)
(0.000760198 -2.45764e-07 7.51883e-08)
(0.000758453 -2.55811e-07 5.01425e-08)
(0.000757001 -5.60086e-07 2.07099e-08)
(0.000755617 -3.80081e-07 1.46057e-07)
(0.000754229 -1.71401e-07 3.70289e-08)
(0.000752813 -9.9128e-08 6.39955e-08)
(0.000751445 -1.41304e-07 4.35746e-08)
(0.000749756 -1.92262e-07 4.35831e-08)
(0.000748172 -4.72529e-07 2.57456e-09)
(0.000747285 -5.63511e-07 6.44876e-08)
(0.000746016 -2.97073e-07 5.23283e-08)
(0.000744488 -2.07128e-07 2.21698e-08)
(0.00074314 -5.03892e-08 4.05628e-08)
(0.000741608 2.46319e-07 4.19369e-08)
(0.000740182 1.33297e-07 -3.38739e-08)
(0.00073891 1.00094e-07 2.59606e-08)
(0.000737876 3.57141e-08 1.1059e-08)
(0.000736216 1.86847e-08 3.27616e-08)
(0.000734282 4.59454e-07 -3.69641e-08)
(0.000733051 2.48777e-07 6.63859e-08)
(-0.00742735 -0.00148315 0.00135388)
(0.000376292 -0.011362 0.00297463)
(0.0455413 -0.0382005 -0.0215241)
(0.0251524 -0.0452217 0.0101046)
(-0.0100525 -0.011987 0.000529456)
(0.0101329 0.00213317 0.00150489)
(0.00118014 -6.31467e-05 3.43503e-06)
(0.0012761 -4.14978e-05 3.24746e-07)
(0.00126948 -1.87597e-05 3.18319e-07)
(0.00129116 -1.17144e-05 5.01905e-07)
(0.00129999 -6.50164e-06 2.49793e-07)
(0.00130466 -4.22075e-06 3.28993e-07)
(0.0013078 -2.52153e-06 2.49915e-07)
(0.00130759 -9.00295e-07 3.52874e-07)
(0.00130577 -6.18244e-07 3.40204e-07)
(0.00130419 -5.9132e-07 2.74399e-07)
(0.00130228 -3.5148e-07 3.27865e-07)
(0.00130025 -6.89732e-08 -3.98386e-09)
(0.00129734 -2.20809e-07 3.64126e-07)
(0.00129514 -3.89302e-07 3.27945e-07)
(0.00129316 -1.06745e-07 3.73808e-07)
(0.00129029 2.28883e-07 3.46642e-07)
(0.00128778 4.44498e-08 2.57692e-07)
(0.00128536 -2.63578e-08 2.86307e-07)
(0.00128265 4.41069e-07 2.23803e-07)
(0.00128028 5.56517e-07 2.19828e-07)
(0.00127806 5.03986e-07 2.74326e-07)
(0.0012758 2.06142e-07 3.27067e-07)
(0.00127274 4.27792e-07 3.79036e-07)
(0.00126973 -4.14288e-07 3.45939e-07)
(0.00126748 -1.14416e-06 2.27913e-07)
(0.00126469 -9.4899e-07 9.03257e-08)
(0.00126242 -7.13206e-07 3.27656e-07)
(0.00126086 -3.53093e-07 3.90889e-07)
(0.00125843 9.62474e-08 3.09374e-07)
(0.00125561 9.82551e-09 3.1486e-07)
(0.00125305 2.50944e-09 3.09993e-07)
(0.00125048 1.46173e-07 2.51958e-07)
(0.00124818 6.12019e-07 2.22425e-07)
(0.00124642 6.22939e-07 3.27833e-07)
(0.00124435 9.20767e-08 2.74738e-07)
(0.00124173 3.21301e-08 2.32473e-07)
(0.0012398 -3.93411e-07 3.64283e-07)
(0.00123722 -4.17289e-07 6.99652e-07)
(0.00123444 -2.23509e-07 3.15083e-07)
(0.00123236 -2.48858e-07 3.31708e-07)
(0.00123025 -4.57236e-07 2.82197e-07)
(0.00122826 -7.80638e-07 4.54021e-07)
(0.00122539 -5.55012e-07 2.03118e-07)
(0.00122237 -3.92975e-07 3.34261e-07)
(2.83422e-06 -0.00134293 0.00147422)
(0.0111511 0.00643605 0.014291)
(-0.00289317 -0.00315948 0.0203737)
(-0.00344239 -0.0518109 0.0131305)
(0.00192186 -0.0138273 0.0412763)
(-0.00372372 -0.00115091 0.000134026)
(0.00118353 -6.37677e-05 9.94325e-06)
(0.00133513 -8.50451e-05 3.67516e-07)
(0.00130278 -1.55972e-05 3.88625e-07)
(0.00130545 -2.58491e-05 3.2561e-07)
(0.00130949 -1.4465e-05 3.23393e-07)
(0.00131003 -9.79536e-06 3.28762e-07)
(0.00131014 -6.04368e-06 3.3003e-07)
(0.00130894 -4.33038e-06 3.29291e-07)
(0.00130707 -2.61719e-06 3.29515e-07)
(0.00130502 -1.74906e-06 4.78217e-07)
(0.00130287 -6.74136e-07 3.239e-07)
(0.00130031 -3.39647e-07 1.48439e-07)
(0.00129798 2.19309e-07 3.14149e-07)
(0.00129565 3.29969e-07 2.98354e-07)
(0.00129309 3.60997e-07 3.42755e-07)
(0.00129029 2.45806e-07 2.45668e-08)
(0.0012875 8.3244e-07 2.98293e-07)
(0.00128577 7.00349e-07 2.73908e-07)
(0.0012835 6.99626e-07 3.05156e-07)
(0.00128035 3.57193e-07 3.88116e-07)
(0.0012775 -4.41115e-09 4.77718e-07)
(0.0012753 -3.83997e-07 3.20508e-07)
(0.00127228 -1.47005e-06 3.55833e-07)
(0.00126887 -9.43626e-07 1.12662e-07)
(0.00126713 -7.91123e-07 3.47198e-07)
(0.0012654 -4.59738e-07 2.7876e-07)
(0.00126317 6.13501e-07 6.34348e-07)
(0.0012612 8.78211e-07 7.3189e-07)
(0.00125838 1.69885e-07 3.30385e-07)
(0.0012555 2.22915e-07 2.99456e-07)
(0.00125348 3.25832e-07 3.01773e-07)
(0.00125124 4.12145e-07 3.59978e-07)
(0.00124852 6.73996e-07 3.0691e-07)
(0.00124578 7.07628e-07 2.74243e-07)
(0.0012435 1.38152e-07 3.2439e-07)
(0.00124117 -3.82801e-07 3.0456e-07)
(0.00123895 -8.85424e-07 2.33164e-07)
(0.00123722 -7.47961e-07 4.5751e-07)
(0.00123492 -2.84755e-07 2.30764e-07)
(0.00123221 -1.82473e-07 2.46618e-07)
(0.00123008 9.94389e-08 2.87205e-07)
(0.00122797 -2.15407e-07 2.90685e-07)
(0.00122543 -5.79215e-07 3.663e-07)
(0.00122387 -4.14126e-07 2.13214e-07)
(0.0328263 -0.015541 0.00144528)
(0.0572516 -0.0130839 -0.00944202)
(0.019329 -0.020631 0.000672216)
(-0.0859392 0.00428522 0.041662)
(-0.0302681 -0.00291813 0.00158519)
(-0.00087993 -6.1382e-05 0.00042007)
(0.000673209 0.000257579 -2.96761e-05)
(0.00127876 -0.000103598 9.17339e-07)
(0.00140407 -4.33135e-05 -1.45206e-07)
(0.00129286 -3.98824e-05 3.21869e-07)
(0.00131997 -2.14269e-05 3.3265e-07)
(0.00131513 -1.3184e-05 3.88363e-07)
(0.0013146 -8.06246e-06 3.30409e-07)
(0.00131185 -5.01903e-06 3.30781e-07)
(0.00130899 -3.06841e-06 3.29102e-07)
(0.00130661 -1.82899e-06 3.26156e-07)
(0.00130404 -1.22755e-06 1.42635e-07)
(0.00130136 -8.01073e-07 2.63775e-07)
(0.00129817 -5.48822e-07 3.63218e-07)
(0.00129531 -2.75241e-07 3.11698e-07)
(0.00129305 -2.12881e-07 2.90644e-07)
(0.00129087 -1.12033e-07 3.20142e-07)
(0.00128834 1.54566e-07 3.29857e-07)
(0.00128518 2.02142e-07 -1.35091e-07)
(0.00128222 -5.6962e-07 4.4083e-07)
(0.00127939 -3.47998e-07 2.57531e-07)
(0.00127713 -4.1831e-07 2.19434e-07)
(0.00127397 -3.08723e-07 3.18323e-07)
(0.00127205 -4.46798e-07 -1.3994e-09)
(0.00127058 5.42443e-07 2.93891e-07)
(0.00126809 1.15378e-06 3.16724e-07)
(0.00126644 1.1062e-06 3.17867e-07)
(0.00126409 6.83439e-07 7.81787e-07)
(0.0012603 5.25499e-07 4.506e-07)
(0.00125761 3.69705e-09 3.52155e-07)
(0.0012558 2.31496e-07 3.25526e-07)
(0.00125329 2.37647e-07 2.74109e-07)
(0.00125091 8.59286e-08 3.27696e-07)
(0.00124854 1.18718e-07 3.22475e-07)
(0.00124575 1.23939e-07 3.52703e-07)
(0.00124299 1.82245e-07 2.26044e-07)
(0.00124045 1.89408e-07 3.42371e-07)
(0.00123935 9.34241e-07 3.13564e-07)
(0.00123798 5.33862e-07 2.66637e-07)
(0.00123515 3.22215e-07 1.4459e-07)
(0.00123284 3.52066e-07 3.91257e-07)
(0.00123022 6.42579e-07 4.49875e-07)
(0.00122741 3.82705e-07 3.33864e-07)
(0.00122515 3.11154e-07 3.2465e-07)
(0.0012236 1.58212e-07 2.91562e-07)
(-0.0296979 -0.0109773 0.00266734)
(-0.0070032 -0.0364116 -0.0139396)
(0.0102332 0.0320421 -0.01131)
(-0.00927269 0.00952274 -0.00069385)
(0.00146375 0.00410127 0.00105215)
(0.00307871 0.00668638 0.000146484)
(0.00164597 -0.000802795 5.47911e-06)
(0.0014242 -0.00019487 8.73227e-07)
(0.00149562 -5.17974e-05 3.11637e-07)
(0.00133312 -3.4611e-05 3.60209e-07)
(0.00134294 -1.87356e-05 3.36471e-07)
(0.00132677 -1.0825e-05 -8.92789e-08)
(0.00132036 -6.87876e-06 2.88157e-07)
(0.00131519 -4.06386e-06 3.31002e-07)
(0.00131107 -2.24514e-06 3.28961e-07)
(0.00130733 -1.27655e-06 3.27947e-07)
(0.00130416 -1.19363e-06 3.4448e-07)
(0.00130116 -9.09009e-07 2.73985e-07)
(0.00129864 -1.09565e-06 3.21196e-07)
(0.00129607 -7.48753e-07 2.89324e-07)
(0.0012933 -6.54065e-07 3.40443e-07)
(0.00129075 -5.19358e-07 3.25897e-07)
(0.00128789 -9.79283e-07 2.60951e-07)
(0.00128486 -7.30544e-07 3.73012e-07)
(0.00128282 -7.0427e-07 1.87168e-07)
(0.00128054 -2.79827e-07 3.34102e-07)
(0.00127755 1.91059e-07 3.84016e-07)
(0.00127526 5.14095e-07 3.95773e-07)
(0.00127334 1.60834e-06 3.39148e-07)
(0.00127087 1.09283e-06 4.75822e-07)
(0.00126783 1.2551e-06 2.97076e-07)
(0.0012648 1.22693e-06 -4.55929e-08)
(0.00126244 3.32019e-07 3.12324e-07)
(0.00126034 -1.15241e-07 3.15215e-07)
(0.00125801 3.01468e-07 2.34539e-07)
(0.00125579 1.45555e-07 2.9744e-07)
(0.00125329 3.64267e-08 2.92896e-07)
(0.00125109 3.69574e-08 3.2434e-07)
(0.00124856 -4.18955e-07 2.18039e-07)
(0.00124586 -2.70253e-07 3.057e-07)
(0.00124358 1.16067e-07 2.46608e-07)
(0.00124211 5.10722e-07 6.12686e-07)
(0.00123937 9.63596e-07 3.5114e-07)
(0.00123645 5.68046e-07 2.16613e-07)
(0.00123469 1.35178e-07 3.0983e-07)
(0.00123261 8.83439e-08 3.08055e-07)
(0.00123012 -3.20301e-09 3.30335e-07)
(0.00122755 1.34778e-07 2.07611e-07)
(0.00122514 3.53046e-07 3.0557e-07)
(0.00122329 3.90556e-07 2.19028e-07)
(-0.00486166 -0.00685757 0.00170662)
(0.00602611 -0.00372202 0.000497932)
(-0.0441061 -0.0142032 -0.000869574)
(0.0445834 -0.0144816 0.000780272)
(-0.00573605 -0.0114323 0.00369836)
(-0.000128432 -0.000303106 -0.000208358)
(0.00133385 0.00138789 -3.82934e-05)
(0.00156995 2.01738e-05 5.99308e-06)
(0.00154101 2.30049e-06 4.91083e-07)
(0.00133471 -5.16141e-06 4.12959e-07)
(0.00134989 -3.04791e-06 3.56841e-07)
(0.00133006 -2.91969e-06 4.04513e-07)
(0.00132311 -1.47631e-06 4.43846e-07)
(0.00131768 -1.2946e-06 3.31687e-07)
(0.0013125 -1.24853e-06 3.22565e-07)
(0.00130794 -9.3517e-07 2.10967e-07)
(0.0013045 -4.49273e-07 3.26624e-07)
(0.00130149 -3.31966e-07 3.23429e-07)
(0.00129838 2.48288e-08 4.86837e-07)
(0.00129587 7.00637e-08 3.33589e-07)
(0.00129334 4.40104e-08 3.56454e-07)
(0.00129047 -3.14528e-08 2.42485e-07)
(0.00128809 -1.03793e-07 3.33738e-07)
(0.00128554 -2.87093e-08 3.68735e-07)
(0.00128278 3.23069e-07 2.51158e-07)
(0.00128051 -1.85142e-07 3.31575e-07)
(0.00127812 1.62664e-07 3.73702e-07)
(0.00127573 2.95448e-07 3.2125e-07)
(0.00127276 3.7478e-07 2.59781e-07)
(0.00127013 2.61818e-07 3.11605e-07)
(0.00126824 5.65881e-08 3.31711e-07)
(0.00126528 -3.66142e-07 2.90939e-07)
(0.00126241 2.77758e-07 3.0059e-07)
(0.00126026 1.53826e-07 3.17272e-07)
(0.00125793 2.46835e-07 3.42638e-07)
(0.00125547 2.92515e-08 3.10486e-07)
(0.00125315 -4.44898e-08 3.28089e-07)
(0.00125034 -1.13277e-07 3.14624e-07)
(0.00124816 -1.97158e-07 4.22222e-07)
(0.00124642 -8.12344e-08 2.94972e-07)
(0.00124396 2.04566e-07 4.2822e-07)
(0.0012415 6.28631e-07 5.53852e-07)
(0.00123942 1.60647e-07 2.92145e-07)
(0.00123694 1.26666e-07 -4.00531e-08)
(0.00123455 -1.31258e-07 3.16601e-07)
(0.00123267 -3.314e-07 3.07424e-07)
(0.00123027 -7.36904e-07 1.64141e-07)
(0.00122786 -6.83077e-07 7.31085e-08)
(0.00122546 -3.94252e-07 3.79659e-07)
(0.00122268 1.63681e-07 4.05933e-07)
(0.00080808 0.00290962 -0.00418846)
(-0.0171796 0.00277535 -0.0082532)
(-0.0287397 0.00372593 0.0104219)
(-0.00909488 -0.0226809 -0.0305256)
(0.0122332 0.0127751 0.00251725)
(0.0231204 -0.00464692 0.002247)
(0.00196876 0.00101875 -0.000234379)
(0.00160186 6.72565e-05 5.73133e-06)
(0.0015214 2.94886e-05 4.9186e-07)
(0.00132659 2.0019e-05 3.441e-07)
(0.0013459 1.05579e-05 2.96522e-07)
(0.00132883 5.87571e-06 2.91289e-07)
(0.00132246 3.7278e-06 3.62648e-07)
(0.00131552 1.87229e-06 3.30732e-07)
(0.00131155 6.69208e-07 5.62323e-07)
(0.00130835 2.45996e-07 3.57774e-07)
(0.00130493 2.11726e-07 3.27137e-07)
(0.00130176 1.59094e-07 3.3241e-07)
(0.00129915 1.56033e-07 3.01935e-07)
(0.0012961 3.23953e-07 4.32651e-07)
(0.00129317 1.89066e-07 1.35274e-07)
(0.00129056 2.56758e-07 3.89177e-07)
(0.00128789 2.91291e-07 4.42819e-07)
(0.0012854 2.14309e-07 3.48216e-07)