/*--------------------------------*- C++ -*----------------------------------*\
| =========                 |                                                 |
| \\      /  F ield         | OpenFOAM: The Open Source CFD Toolbox           |
|  \\    /   O peration     | Version:  5.0                                   |
|   \\  /    A nd           | Web:      www.OpenFOAM.org                      |
|    \\/     M anipulation  |                                                 |
\*---------------------------------------------------------------------------*/
FoamFile
{
    version     2.0;
    format      ascii;
    class       surfaceVectorField;
    location    "2.5";
    object      Uf;
}
// * * * * * * * * * * * * * * * * * * * * * * * * * * * * * * * * * * * * * //

dimensions      [0 1 -1 0 0 0 0];

internalField   nonuniform List<vector> 
29467
(
(-0.000213526 -0.004636 0.000648903)
(0.00256917 -0.00624899 -0.000320606)
(-0.00563529 -0.00528344 0.000766853)
(0.00344463 -0.0105919 0.000369137)
(0.0121336 -0.0108916 -0.000307934)
(0.000269654 -0.0110822 -0.000596124)
(0.00602701 -0.00830236 0.000771804)
(0.0178204 -0.000620126 0.00327976)
(0.0154006 0.0168898 0.00108443)
(0.019911 0.00616865 0.00218368)
(0.00922273 0.0166355 0.00360859)
(0.0142947 0.0127689 0.00606304)
(0.0281893 0.0274483 0.00502895)
(0.0217525 0.0170135 0.00315189)
(0.0799868 0.0179243 0.00148362)
(-0.0133637 -0.00830389 0.00230496)
(0.0686614 0.0232998 0.00805167)
(0.00330848 0.0210556 0.011311)
(0.00866714 0.00828939 0.000167585)
(0.00795806 0.00962262 -0.000129777)
(-0.00189504 0.00148117 0.000209517)
(0.0148657 0.00270804 0.00392572)
(0.0391238 0.00229007 -0.00259888)
(0.00724215 0.0136275 0.00885997)
(0.00848389 0.00509208 -0.00362209)
(0.00203669 0.0118622 0.000162301)
(0.00279969 0.00606952 0.000165327)
(0.000821274 0.00357243 0.000132385)
(0.00455165 0.00802404 0.000631823)
(0.000565844 -3.44818e-05 2.84755e-05)
(0.000551793 3.82049e-05 -1.27889e-06)
(0.00102262 7.04565e-05 8.8769e-06)
(0.000486769 6.39279e-05 2.49471e-05)
(0.00090206 -0.000136456 6.86316e-05)
(0.000815858 0.000150028 5.91861e-05)
(0.000437885 6.72316e-05 3.05555e-06)
(0.000746092 0.000132673 8.39574e-06)
(0.00067944 9.4136e-05 -1.59891e-06)
(0.000396846 4.41612e-05 -7.0637e-07)
(0.00082596 3.99432e-05 -1.27118e-06)
(0.000828182 6.67319e-05 -2.20336e-06)
(0.00113947 5.8758e-05 -1.65641e-06)
(0.000635311 3.56058e-05 -4.94717e-06)
(0.000609504 6.88386e-05 -3.93167e-06)
(0.00106086 5.1217e-05 -5.35691e-06)
(0.00103544 0.00011951 -4.25699e-06)
(0.000806786 2.57642e-05 -3.60971e-08)
(0.000797437 4.59432e-05 -1.14797e-07)
(0.00107762 4.00283e-05 9.66186e-08)
(0.0008 1.57982e-05 6.76754e-08)
(0.000794415 2.25276e-05 3.4965e-08)
(0.00106863 2.40376e-05 1.69504e-07)
(0.000796072 9.87661e-06 7.59113e-08)
(0.000793245 1.35477e-05 7.12171e-08)
(0.00106218 1.52567e-05 1.47719e-07)
(0.000794035 6.09805e-06 3.59039e-08)
(0.000792205 7.76754e-06 5.61682e-08)
(0.0010588 9.30636e-06 1.9352e-07)
(0.000792324 3.84035e-06 3.90223e-08)
(0.000791577 4.56623e-06 3.09792e-08)
(0.00105688 5.82828e-06 2.01194e-07)
(0.000790742 2.41882e-06 5.77756e-08)
(0.000790563 2.75689e-06 5.96612e-08)
(0.00105475 3.74671e-06 1.51061e-07)
(0.00078912 1.51205e-06 9.88986e-08)
(0.000789412 1.7163e-06 4.80232e-08)
(0.00105258 2.31774e-06 1.6727e-07)
(0.000787821 9.25428e-07 1.01557e-07)
(0.000788141 6.44739e-07 9.20149e-08)
(0.00105071 1.45276e-06 1.78176e-07)
(0.000786254 6.22685e-07 6.62221e-08)
(0.000786842 7.14907e-07 4.78013e-08)
(0.00104882 8.44317e-07 1.75564e-07)
(0.000784553 3.97721e-07 6.91364e-08)
(0.000785327 5.99932e-07 4.68979e-08)
(0.0010467 7.04945e-07 1.97696e-07)
(0.000783111 1.66922e-07 1.04748e-07)
(0.000783723 4.09917e-07 4.85318e-08)
(0.00104452 2.81895e-07 1.63018e-07)
(0.000781462 4.08853e-08 1.00604e-07)
(0.000782274 1.4355e-07 8.80394e-08)
(0.00104249 1.16183e-07 1.75756e-07)
(0.000780245 6.29322e-08 3.53838e-08)
(0.000780884 2.91123e-07 4.25449e-08)
(0.00104068 -1.05763e-08 1.82178e-07)
(0.00077862 1.28367e-07 4.33336e-08)
(0.00077941 -3.51558e-07 4.24709e-08)
(0.00103867 2.38692e-07 1.91538e-07)
(0.000777264 9.96369e-08 5.66718e-08)
(0.000777883 -1.09753e-06 9.61645e-08)
(0.00103668 1.79085e-07 2.26494e-07)
(0.000775498 2.22413e-07 5.76464e-08)
(0.000776549 9.07434e-08 4.87568e-08)
(0.00103467 1.38219e-07 1.90054e-07)
(0.000774029 5.2967e-07 7.42547e-08)
(0.000775163 -4.75842e-07 2.56704e-08)
(0.0010324 5.0112e-07 1.9796e-07)
(0.000773236 5.49736e-07 6.4887e-08)
(0.000773578 -1.76264e-06 5.80947e-08)
(0.00103094 9.53002e-07 1.77528e-07)
(0.00077157 2.78396e-07 4.67223e-08)
(0.000771989 5.55763e-07 3.77864e-08)
(0.00102932 5.41708e-07 1.51424e-07)
(0.000770135 1.74379e-07 8.55569e-08)
(0.000770645 7.80159e-08 4.58765e-08)
(0.00102735 2.16391e-07 1.71138e-07)
(0.000768234 3.65373e-08 1.53551e-07)
(0.000769039 1.0966e-06 1.00928e-07)
(0.00102501 2.43464e-07 -1.84289e-08)
(0.000766982 -2.8905e-07 1.27497e-07)
(0.000767365 1.2679e-07 1.2806e-07)
(0.0010228 -1.89319e-07 1.34625e-07)
(0.000765112 -5.05953e-07 5.52945e-08)
(0.000765957 -7.96979e-07 -2.37666e-08)
(0.00102085 -6.81247e-07 3.63515e-07)
(0.000763897 -4.94918e-07 5.7838e-08)
(0.000764512 -7.1744e-07 2.68059e-08)
(0.00101866 -7.43191e-07 3.11153e-07)
(0.000762373 -3.32725e-07 6.15693e-08)
(0.000763227 -2.87263e-07 9.90304e-08)
(0.00101686 -5.83654e-07 1.77933e-07)
(0.000761222 -1.42822e-07 4.2849e-08)
(0.000762047 -1.55121e-08 7.66727e-08)
(0.00101527 -2.78122e-07 1.5352e-07)
(0.000759711 -4.95566e-08 4.33721e-08)
(0.000760584 -8.72751e-08 4.2324e-08)
(0.00101347 -4.88231e-08 1.66673e-07)
(0.000758242 2.66197e-09 3.96945e-08)
(0.000759046 3.94541e-08 3.94785e-08)
(0.0010114 -1.77821e-08 1.69925e-07)
(0.000756559 1.09172e-07 3.54546e-08)
(0.000757625 3.44451e-07 3.81899e-08)
(0.0010093 6.15072e-08 1.68066e-07)
(0.000755104 3.40701e-07 6.31869e-08)
(0.000756177 4.0175e-07 1.98426e-08)
(0.00100708 2.41948e-07 1.36282e-07)
(0.000754645 3.4257e-07 1.02776e-07)
(0.000754801 -2.03189e-06 7.89667e-08)
(0.00100588 6.82801e-07 2.04651e-07)
(0.000752828 1.20834e-07 7.37044e-08)
(0.00075338 3.3569e-07 1.14674e-07)
(0.00100448 2.79029e-07 1.72985e-07)
(0.000751283 5.31614e-08 5.54932e-08)
(0.000751878 6.53321e-08 4.37074e-08)
(0.00100215 9.03459e-08 1.8075e-07)
(0.000750113 -2.41854e-07 7.93857e-08)
(0.000750368 -1.80809e-08 5.10711e-08)
(0.00100024 6.08555e-08 1.60745e-07)
(0.000748977 -5.25175e-07 3.55171e-08)
(0.000749216 1.67724e-06 7.68889e-08)
(0.000998961 -6.74655e-07 1.43254e-07)
(0.000746847 -3.86414e-07 1.20363e-08)
(0.000748047 2.22493e-06 3.66446e-08)
(0.000996654 -6.53369e-07 6.33623e-08)
(0.00074555 -1.37569e-07 -4.1445e-08)
(0.000746589 -2.2474e-07 4.565e-08)
(0.000994285 -3.31596e-07 1.64439e-07)
(0.000744302 3.68132e-08 -2.95002e-08)
(0.000745157 2.01332e-07 -2.75175e-08)
(0.000992682 -6.46075e-08 1.34908e-07)
(0.000743451 1.97223e-08 5.69954e-08)
(0.000743818 -5.67662e-07 5.78851e-08)
(0.000991208 8.53249e-08 1.56594e-07)
(0.000741855 -1.53001e-07 4.56951e-08)
(0.000742542 2.31806e-07 1.27681e-08)
(0.000989727 -1.23468e-07 1.71052e-07)
(0.000740163 -2.75968e-07 2.16075e-08)
(0.000740946 -5.07866e-08 -1.80418e-08)
(0.000987391 -3.43907e-07 1.87545e-07)
(0.000739578 8.77581e-07 5.69312e-08)
(0.00098522 -3.98749e-07 1.07354e-07)
(0.00687097 -0.00219291 -4.77625e-05)
(0.00107726 -0.00803835 0.00160246)
(0.025625 -0.0220245 -0.00168248)
(0.0120186 -0.0540392 -0.00108283)
(0.0174142 -0.039615 -0.00379971)
(0.0212622 -0.0113967 -0.000173971)
(0.00125507 -0.00665609 5.66698e-06)
(-0.00341894 -0.00854801 -0.000364169)
(0.0066137 -0.00680597 0.00082444)
(0.0151269 -0.00520645 0.000690317)
(-0.00064678 0.00238326 -0.000867462)
(-0.00933013 0.00161397 3.33076e-05)
(0.00890506 0.0106406 -0.000514736)
(0.0149124 0.0163713 0.00320593)
(0.00871151 0.0201471 -0.00158172)
(0.00147448 0.00237788 -0.000512796)
(0.00467854 0.017642 -0.000737342)
(0.00780171 0.0158492 -0.00117245)
(-0.00668605 -0.0253233 -0.00172035)
(-0.0237158 0.00974165 -0.00239721)
(-0.0137867 -0.00921282 -0.00512526)
(-0.00417415 -0.000313962 -0.00316598)
(-0.0117914 0.0268023 -0.00131626)
(-0.0404013 -0.0204068 -0.00487443)
(-0.0513438 -0.00558078 -0.0025151)
(-0.0664489 -0.0162728 -0.00543221)
(-0.0292585 -0.0110421 -0.0031015)
(-0.0460373 0.0329459 -0.00288175)
(0.00724716 0.00579138 0.00116985)
(0.0040917 -0.00257159 0.00148648)
(-0.01435 0.0100048 0.00136708)
(-0.00620919 0.00535621 -0.000663933)
(-0.000438011 0.00492149 -0.000416598)
(-0.000186578 0.000916984 -2.2592e-05)
(0.000311049 -0.00313955 -1.54126e-06)
(-1.14704e-05 0.00130243 9.76913e-06)
(-8.31264e-05 0.00112299 0.000106533)
(-0.000944736 0.00123285 1.32303e-05)
(0.000510917 1.62033e-05 1.96422e-05)
(0.000331081 6.75689e-05 6.77848e-06)
(0.000356118 6.18219e-05 1.14618e-05)
(0.000551955 0.000104017 2.18781e-05)
(0.000256185 5.88678e-05 4.25702e-06)
(0.000787054 6.07659e-05 -1.04766e-06)
(0.000511972 5.41154e-05 -6.93494e-07)
(0.00105944 7.88764e-05 -1.38742e-06)
(0.000568793 6.94074e-05 -4.0767e-06)
(0.00053811 6.44693e-05 -3.73089e-06)
(0.000973232 0.000112902 -4.4753e-06)
(0.000914488 0.000101408 -3.18539e-06)
(0.000497461 2.09144e-05 -3.69243e-06)
(0.000850389 6.76121e-05 -5.11429e-08)
(0.000814492 1.72792e-05 -4.69309e-06)
(0.000783201 3.79515e-05 -4.37842e-08)
(0.000790363 5.02722e-05 -6.29914e-07)
(0.00104315 6.78068e-05 7.7324e-08)
(0.00078743 1.6843e-05 3.8495e-08)
(0.00076808 1.55358e-05 -2.09717e-07)
(0.00104638 2.50858e-05 1.6007e-07)
(0.000788925 9.71262e-06 5.14789e-08)
(0.000784296 9.79887e-06 1.41145e-07)
(0.00105086 1.52321e-05 1.72159e-07)
(0.000789767 5.30932e-06 5.12516e-08)
(0.00078668 4.81503e-06 6.07328e-08)
(0.00105206 8.01926e-06 1.73233e-07)
(0.000789725 3.01702e-06 5.16088e-08)
(0.0007887 2.6843e-06 6.0521e-08)
(0.00105268 4.60653e-06 1.75639e-07)
(0.000789248 1.70934e-06 4.99125e-08)
(0.000788922 1.41665e-06 5.26568e-08)
(0.00105224 2.51248e-06 1.757e-07)
(0.000788474 9.86082e-07 4.11252e-08)
(0.000788504 7.66902e-07 5.21026e-08)
(0.00105137 1.46886e-06 1.74412e-07)
(0.00078711 5.89084e-07 3.82737e-08)
(0.000787642 5.38917e-07 4.33743e-08)
(0.00104989 8.02161e-07 1.67253e-07)
(0.000786071 3.11839e-07 2.84774e-08)
(0.000786495 2.29641e-07 3.93847e-08)
(0.00104833 5.55892e-07 1.65273e-07)
(0.000784336 2.3697e-07 2.62928e-08)
(0.000785233 2.59669e-06 6.27443e-08)
(0.00104644 1.71272e-07 5.40688e-08)
(0.000782996 2.40446e-07 3.18108e-08)
(0.000783727 2.25665e-07 7.48797e-08)
(0.00104434 4.08054e-07 1.70689e-07)
(0.000781558 1.89632e-07 2.99954e-08)
(0.00078221 5.87371e-08 3.29629e-08)
(0.00104253 2.17148e-07 1.7255e-07)
(0.00078014 1.99023e-07 4.9632e-08)
(0.000780895 4.89436e-08 3.37993e-08)
(0.00104065 2.98664e-07 1.81848e-07)
(0.00077863 2.93759e-07 9.52846e-08)
(0.000779527 -3.41269e-08 5.4623e-08)
(0.00103867 2.43346e-07 1.51285e-07)
(0.000777194 3.75151e-07 8.82646e-08)
(0.000777983 -9.52643e-07 7.7189e-08)
(0.00103654 5.75754e-07 1.57032e-07)
(0.000776156 3.71648e-07 1.67881e-08)
(0.000776543 3.39724e-07 5.56104e-08)
(0.00103504 4.96078e-07 1.15165e-07)
(0.00077483 4.0191e-07 9.50007e-09)
(0.000775199 -1.61222e-07 1.02651e-08)
(0.0010336 5.65612e-07 1.35888e-07)
(0.000772265 2.22613e-07 3.10004e-08)
(0.000773352 -3.15153e-07 7.13962e-08)
(0.00103079 5.47144e-07 1.65215e-07)
(0.000771027 -5.44524e-08 3.69381e-08)
(0.000771642 -3.92508e-08 4.35231e-08)
(0.00102818 7.69939e-08 1.92203e-07)
(0.000769631 -3.62025e-07 6.123e-08)
(0.000770262 2.39163e-08 4.98206e-08)
(0.00102661 -2.08682e-07 1.68432e-07)
(0.000768104 -5.2128e-07 7.54281e-08)
(0.000768842 -3.92079e-07 4.14267e-08)
(0.00102461 -8.23878e-07 2.81253e-07)
(0.000766408 -4.21298e-07 -2.31564e-08)
(0.000767493 -3.29365e-07 3.9391e-08)
(0.00102227 -6.54905e-07 2.23608e-07)
(0.000765239 -2.88394e-07 -5.22711e-08)
(0.000766125 1.59334e-07 6.87768e-08)
(0.00102054 -5.09516e-07 7.75688e-08)
(0.00076387 3.48786e-08 6.79757e-08)
(0.000764916 3.58903e-07 3.85915e-08)
(0.0010189 -2.8698e-07 8.68199e-08)
(0.00076289 2.93069e-07 1.14141e-07)
(0.000763549 -2.19495e-06 5.91895e-08)
(0.00101726 4.01366e-07 2.64147e-07)
(0.000761468 2.27857e-07 7.61583e-08)
(0.000761964 -1.65456e-06 6.12262e-08)
(0.00101577 4.66008e-07 2.8483e-07)
(0.00075985 1.48574e-07 3.84312e-08)
(0.000760483 1.78736e-07 6.57447e-08)
(0.00101365 2.01907e-07 1.66975e-07)
(0.000758485 1.65689e-07 3.79743e-08)
(0.000759067 3.20178e-08 4.24972e-08)
(0.00101156 2.0813e-07 1.64029e-07)
(0.000757212 2.63079e-07 2.25836e-08)
(0.000757746 1.57826e-07 4.8033e-08)
(0.00100985 2.46512e-07 1.68918e-07)
(0.000755846 4.80296e-07 3.56041e-08)
(0.000756447 8.42476e-08 2.54337e-08)
(0.00100821 4.69181e-07 1.86762e-07)
(0.000753622 4.55084e-07 9.0853e-08)
(0.000754767 -6.83787e-07 4.75298e-08)
(0.00100573 8.175e-07 1.44423e-07)
(0.000752385 2.49365e-07 8.46987e-08)
(0.000753122 2.39428e-07 8.21092e-08)
(0.00100334 4.28502e-07 1.59729e-07)
(0.00075098 9.9582e-08 3.92831e-08)
(0.00075169 9.83391e-08 6.31662e-08)
(0.00100169 2.55622e-07 1.65692e-07)
(0.000749318 -1.20207e-07 4.85663e-08)
(0.000750094 9.39718e-08 4.14456e-08)
(0.000999572 -2.72821e-08 1.83372e-07)
(0.000748393 -4.57223e-07 7.80287e-08)
(0.000748797 6.14029e-07 7.15442e-08)
(0.000997802 -3.47364e-07 2.0193e-07)
(0.000747806 -3.81271e-07 7.02555e-08)
(0.000748144 1.5671e-07 1.11638e-07)
(0.000996968 -8.87875e-07 2.44517e-07)
(0.000746203 -1.08504e-08 5.95998e-08)
(0.000747054 7.69185e-08 7.09777e-08)
(0.000995429 -1.37021e-07 1.64829e-07)
(0.000744607 1.90158e-07 5.98417e-08)
(0.000745408 -5.55599e-08 5.51708e-08)
(0.000993229 4.35939e-08 2.05121e-07)
(0.000742949 1.7384e-07 1.36716e-08)
(0.000743797 3.60973e-08 5.66021e-08)
(0.000991128 3.88609e-07 1.48275e-07)
(0.000741713 -8.6012e-08 -5.09594e-08)
(0.000742217 1.06188e-07 2.17845e-08)
(0.000989206 2.61333e-08 1.62963e-07)
(0.00074017 -1.97537e-07 1.72592e-08)
(0.000740809 5.94094e-07 -5.62834e-09)
(0.000987273 -2.93965e-07 1.3501e-07)
(0.000739824 -1.9073e-07 1.09638e-07)
(0.000985764 -2.64344e-07 2.22513e-07)
(0.00491233 0.0269554 -0.00275407)
(-0.0479096 0.00844372 -0.0010009)
(-0.0155992 -0.0166632 0.00158265)
(-0.022551 -0.00249401 0.00692017)
(0.0206914 0.0049278 -0.000316558)
(0.00316536 0.000192019 0.000355418)
(0.00774558 -0.0126661 -0.00160363)
(0.0341368 0.00914767 -0.00173366)
(0.0338181 0.0141183 -0.00106898)
(0.0299369 0.0110668 -0.00312727)
(0.019235 0.00623566 0.0033846)
(0.0439161 0.00096495 -0.0211957)
(0.0178133 -0.00342917 0.0398735)
(0.00829597 0.00290814 0.0313176)
(0.0118902 -0.0199182 -0.0360948)
(-0.0084928 -0.00784566 -0.000592722)
(-0.00164242 -0.0118982 -0.00118109)
(0.00619248 -0.0119171 -0.000682472)
(0.00036055 0.00370059 -0.00181549)
(-0.00580741 -0.0153739 -0.00227324)
(-0.00779478 0.00184346 -3.43887e-05)
(0.0124878 0.00938027 0.000673843)
(-0.0145673 0.000819434 0.000935728)
(-0.029082 0.0227179 0.0018608)
(-0.023149 0.00821749 0.000300833)
(-0.00969826 0.00310853 0.000348503)
(0.00735497 0.000795359 0.000602085)
(0.00631656 0.00458353 0.000707947)
(-0.000196443 0.00128795 0.00206321)
(0.0379612 -0.0110617 -0.000356225)
(0.0211009 0.00129593 0.00066293)
(0.031322 -0.00711349 -0.00153742)
(0.0420609 0.00617079 0.00160426)
(-0.0015714 0.000316984 -2.92752e-05)
(0.000476242 -0.000185826 0.000117288)
(-0.00076129 0.000108958 2.21178e-06)
(-0.000181025 0.000504443 1.31055e-05)
(-0.0014166 -7.8229e-05 9.14767e-05)
(0.000421851 0.000192372 5.55938e-05)
(0.000484991 -0.000129452 1.17738e-05)
(0.000761806 9.94415e-05 -1.95801e-05)
(0.000648419 5.60465e-05 -3.87407e-05)
(0.000698179 -2.21353e-05 4.80559e-06)
(0.00025068 1.79067e-05 -1.45412e-06)
(0.000391202 1.65941e-05 -2.42001e-06)
(0.000371722 -5.18642e-06 5.59906e-07)
(0.000624376 3.28398e-05 4.19485e-07)
(0.000249303 1.00382e-05 -1.63375e-06)
(0.000445883 2.69607e-05 -2.52821e-06)
(0.000448017 6.72833e-06 -2.20203e-06)
(0.000751101 1.01715e-05 -7.95985e-07)
(0.000815773 -1.40339e-05 -1.13445e-06)
(0.00106699 2.06706e-05 -5.86009e-07)
(0.0005203 1.14033e-05 -3.41463e-06)
(0.000530863 7.65171e-08 -4.66627e-06)
(0.000845186 7.80759e-06 -4.41551e-06)
(0.000871893 -1.49539e-05 -6.01725e-06)
(0.000772016 2.10328e-06 -1.07182e-07)
(0.000758041 -1.09466e-05 -4.71732e-07)
(0.00100308 2.80578e-07 6.34791e-08)
(0.000781652 1.70362e-06 1.50425e-07)
(0.000783809 -4.72383e-06 2.0198e-07)
(0.00104076 1.86874e-06 2.12725e-07)
(0.000786311 8.03398e-07 7.00023e-08)
(0.000785561 -3.0285e-06 1.96464e-08)
(0.00104546 6.62362e-07 1.81128e-07)
(0.000788059 4.06377e-07 6.15717e-08)
(0.000788208 -1.47793e-06 5.8938e-08)
(0.00104997 3.07686e-07 1.78299e-07)
(0.000788314 1.59866e-07 5.48471e-08)
(0.000788616 -8.44499e-07 5.30238e-08)
(0.00105082 7.46208e-08 1.75999e-07)
(0.000787802 -2.76434e-08 5.43546e-08)
(0.000788272 -5.34103e-07 5.21793e-08)
(0.00105043 -6.39035e-08 1.7587e-07)
(0.000787039 -1.6573e-07 4.44866e-08)
(0.000787471 -4.65565e-07 5.21161e-08)
(0.00104956 -2.36658e-07 1.77279e-07)
(0.000785683 -2.89323e-07 7.3644e-08)
(0.000786342 7.0907e-08 4.72562e-08)
(0.00104802 -3.20432e-07 1.70002e-07)
(0.000784726 -3.58526e-07 1.11327e-07)
(0.000785147 4.2386e-07 7.93946e-08)
(0.00104652 -5.01303e-07 2.74567e-07)
(0.00078285 -2.56792e-07 7.60453e-08)
(0.000783855 5.65598e-07 6.94206e-08)
(0.00104458 -4.75837e-07 1.80814e-07)
(0.000781515 -1.12427e-07 3.67666e-08)
(0.000782391 -2.01768e-07 3.4138e-08)
(0.00104235 -2.30427e-07 1.75756e-07)
(0.000780325 -4.13064e-08 3.87836e-08)
(0.000780984 -2.37634e-07 4.51743e-08)
(0.00104071 -9.35597e-08 1.65248e-07)
(0.000778919 -8.91956e-09 3.65202e-08)
(0.000779568 -1.51944e-07 4.74961e-08)
(0.00103901 -4.26089e-08 1.72466e-07)
(0.000777263 2.73092e-08 4.45417e-08)
(0.000778028 2.32067e-07 2.84762e-08)
(0.00103699 1.36037e-08 1.03771e-07)
(0.000775565 -7.45593e-08 4.91019e-08)
(0.000776416 1.2219e-08 5.93693e-08)
(0.00103465 8.76463e-08 2.12992e-07)
(0.000773989 -2.7978e-07 7.21418e-08)
(0.000774943 8.11369e-07 1.25389e-07)
(0.00103246 -2.78912e-07 1.11693e-07)
(0.000772424 -2.69396e-07 8.39277e-08)
(0.000773367 -2.74604e-07 9.94052e-08)
(0.00103032 -4.60257e-07 1.76163e-07)
(0.000770978 -1.29181e-07 5.64037e-08)
(0.000771818 -4.69994e-08 5.9497e-08)
(0.00102838 -2.28048e-07 1.69248e-07)
(0.000769454 -9.11296e-08 3.002e-08)
(0.00077031 -2.38342e-08 5.7966e-08)
(0.00102622 -9.53405e-08 1.79244e-07)
(0.000768192 6.43606e-08 5.39028e-09)
(0.000769036 3.28327e-07 -8.58081e-09)
(0.00102445 -1.34822e-07 1.02255e-07)
(0.000767281 3.18481e-07 1.31315e-07)
(0.000767809 6.55654e-07 2.36298e-08)
(0.0010232 3.4419e-07 5.2597e-08)
(0.00076569 4.19512e-07 1.59649e-07)
(0.000766249 3.3858e-07 1.80164e-07)
(0.00102132 6.08496e-07 1.69895e-07)
(0.000764719 4.40642e-07 2.97988e-08)
(0.000764941 4.43346e-07 5.87261e-08)
(0.0010198 6.18777e-07 1.21818e-07)
(0.00076254 3.86944e-07 6.27432e-09)
(0.000763479 2.54406e-08 2.7305e-08)
(0.0010178 5.96983e-07 7.76043e-08)
(0.00076102 2.27197e-07 5.08112e-08)
(0.000761764 1.55424e-07 3.01065e-08)
(0.00101502 4.37012e-07 4.80918e-08)
(0.000759659 1.4092e-07 6.98179e-08)
(0.000760374 1.44531e-07 3.35675e-08)
(0.00101314 1.5219e-07 1.65451e-07)
(0.000758312 1.19748e-07 5.25542e-08)
(0.00075904 -1.05722e-07 1.27823e-07)
(0.00101146 1.94349e-07 1.71714e-07)
(0.00075699 3.41658e-08 5.08901e-08)
(0.000757639 1.68619e-08 1.1682e-07)
(0.00100962 1.26961e-07 1.70056e-07)
(0.000755557 -9.80376e-08 3.73525e-08)
(0.000756282 -4.6117e-08 5.05547e-08)
(0.00100779 -1.24829e-08 1.79381e-07)
(0.000754005 -1.02818e-07 3.87754e-08)
(0.000754762 -2.34862e-07 2.05014e-08)
(0.00100582 -2.13129e-07 1.4867e-07)
(0.000752598 -3.67683e-08 6.05826e-08)
(0.000753204 3.84588e-08 8.24274e-09)
(0.00100378 -3.08768e-08 1.82508e-07)
(0.00075077 4.2184e-08 6.53354e-08)
(0.000751789 6.06588e-07 6.53388e-08)
(0.00100158 -4.52601e-08 1.69578e-07)
(0.000749504 3.32728e-07 6.44143e-08)
(0.000750456 -8.20338e-08 7.2048e-08)
(0.000999492 1.82998e-07 1.68415e-07)
(0.000748189 5.86233e-07 1.05141e-07)
(0.000749111 3.56837e-07 1.28268e-07)
(0.000997891 7.44262e-07 1.78934e-07)
(0.000747906 4.45287e-07 1.12373e-07)
(0.000747965 -1.45003e-06 2.63655e-08)
(0.000996923 8.43685e-07 1.8345e-07)
(0.000746161 1.99416e-07 6.65536e-08)
(0.000746745 5.40921e-07 6.4895e-08)
(0.000995455 3.81895e-07 1.65983e-07)
(0.000744645 1.47243e-07 5.19308e-08)
(0.000745341 -2.65404e-08 4.64817e-08)
(0.00099334 2.36958e-07 1.77005e-07)
(0.000742934 2.40194e-07 6.47256e-08)
(0.000743912 1.80798e-07 5.58653e-08)
(0.000991187 2.38272e-07 1.86552e-07)
(0.000741366 2.01798e-07 6.7124e-08)
(0.000742168 3.97672e-07 5.90934e-08)
(0.000988874 4.44129e-07 1.62841e-07)
(0.000740252 8.19618e-08 8.67159e-08)
(0.000740658 2.69502e-07 5.19067e-08)
(0.000987036 1.11832e-07 1.66656e-07)
(0.000739721 -9.19039e-07 1.40485e-07)
(0.000985915 1.23465e-07 1.92383e-07)
(-0.0254396 0.0186638 0.00167577)
(-0.00263284 0.0130909 0.000270768)
(-0.00198309 -0.0024412 3.73886e-06)
(-0.0235898 -0.00143047 0.00164556)
(-0.0240808 0.00204874 -0.000413336)
(-0.0194397 -0.0199559 -0.00123055)
(-0.0433185 -0.00311335 -0.00376882)
(-0.0179338 0.0269413 0.000840181)
(-0.016485 0.00492561 -0.00136412)
(0.0162285 -0.0326716 -0.000840405)
(0.0211185 -0.0128389 0.0012529)
(0.0074731 -0.0208136 -0.000254289)
(0.0155482 -0.0136146 -0.000183644)
(0.024805 -0.0213269 0.000896748)
(-0.00695123 -0.00694668 0.000638966)
(0.00584417 -0.0039563 0.000320933)
(0.00356173 -0.00166269 0.000191405)
(-0.00453494 -0.00163141 -0.000173976)
(-0.0100288 -0.0257025 0.00252557)
(0.0278871 -0.0161462 0.000581079)
(0.0173714 -0.0225854 0.000248203)
(0.0398016 -0.0108022 0.000103645)
(-0.000485604 0.0107386 -0.0038615)
(0.013349 -0.0227222 0.00223419)
(0.0193186 -0.000313761 0.00617223)
(0.000152373 0.000700212 0.000293903)
(-0.00442639 -0.000805816 -8.69435e-05)
(-0.00324773 -0.00107393 9.46978e-06)
(-0.00283834 2.67061e-05 0.000365517)
(-0.00149496 0.00183071 0.000344975)
(0.000509043 -0.00185243 2.55405e-05)
(-0.000687859 -0.00309899 -7.36916e-05)
(0.000175996 -0.00159701 -9.55953e-06)
(0.00291825 -0.00381283 -0.000145655)
(0.00132158 -0.00567326 5.93801e-05)
(0.000254369 -0.000173814 1.7948e-05)
(0.000756797 -0.000201044 9.97792e-05)
(0.000881998 -7.02435e-05 6.50376e-05)
(0.00114558 -0.000336025 -5.57838e-05)
(0.000811721 -0.000112307 4.06279e-05)
(0.000279728 -5.0072e-05 -3.92194e-07)
(0.000425704 -4.75873e-05 -3.28952e-06)
(0.000408276 -4.62847e-05 -3.39795e-07)
(0.000653317 -9.94706e-05 -3.78046e-07)
(0.000301602 -5.37755e-05 1.50315e-06)
(0.000527991 -0.000101769 4.77513e-06)
(0.00057786 -0.000109993 8.09574e-06)
(0.000378875 -4.72578e-05 -1.45081e-07)
(0.000773695 -2.43892e-05 -8.10418e-07)
(0.000857588 -3.33816e-05 -7.28912e-07)
(0.00111694 -4.01483e-05 -8.77721e-07)
(0.000558168 -3.43479e-05 -3.58776e-06)
(0.000567245 -3.74924e-05 -4.8333e-06)
(0.000921331 -6.9143e-05 -4.54201e-06)
(0.000941895 -7.24305e-05 -6.05473e-06)
(0.000782858 -1.41482e-05 -1.6279e-07)
(0.000770968 -2.20785e-05 -6.81331e-07)
(0.00102302 -2.52805e-05 1.8811e-08)
(0.000786719 -7.38293e-06 7.12609e-08)
(0.000792319 -1.18565e-05 2.07368e-07)
(0.00105138 -1.28703e-05 2.01359e-07)
(0.000788496 -4.1762e-06 8.56933e-09)
(0.000789599 -6.98875e-06 2.31994e-08)
(0.00105013 -7.15393e-06 1.61795e-07)
(0.000789014 -2.45396e-06 5.03921e-08)
(0.000790378 -4.08805e-06 7.60568e-08)
(0.00105196 -4.23937e-06 1.77249e-07)
(0.000788779 -1.4416e-06 5.03562e-08)
(0.000789892 -2.48603e-06 5.04785e-08)
(0.00105179 -2.49185e-06 1.75352e-07)
(0.000788032 -8.56345e-07 4.99408e-08)
(0.000789009 -1.53681e-06 2.71266e-08)
(0.00105099 -1.45324e-06 1.75534e-07)
(0.000786878 -5.8066e-07 5.48872e-08)
(0.000787819 -9.49642e-07 5.39412e-08)
(0.00104957 -8.72343e-07 1.74907e-07)
(0.000785735 -4.14091e-07 5.29964e-08)
(0.000786552 -6.69132e-07 5.43388e-08)
(0.00104801 -7.02241e-07 1.91594e-07)
(0.00078441 -3.69671e-07 3.74911e-08)
(0.000785205 -1.31473e-07 4.79096e-08)
(0.00104625 -4.27463e-07 1.94628e-07)
(0.000783375 -3.20613e-07 2.75246e-08)
(0.000783918 5.46851e-08 5.42542e-08)
(0.00104469 -5.89462e-07 1.66849e-07)
(0.000781846 -1.92485e-07 4.25422e-08)
(0.000782553 -2.03461e-07 6.11115e-08)
(0.00104301 -3.17318e-07 1.74655e-07)
(0.000780255 -1.8089e-07 5.38861e-08)
(0.000781 -1.86714e-07 6.1436e-08)
(0.00104088 -2.57213e-07 1.76576e-07)
(0.000778684 -2.32186e-07 3.94582e-08)
(0.000779505 -1.05127e-07 1.65342e-07)
(0.0010388 -2.6633e-07 1.75483e-07)
(0.000777145 -2.37603e-07 4.32939e-08)
(0.000778023 -1.30063e-07 1.5553e-07)
(0.00103671 -3.9765e-07 2.01344e-07)
(0.000775822 -1.73017e-07 1.35635e-07)
(0.000776498 8.6848e-08 7.89299e-08)
(0.00103467 -3.0493e-07 1.52182e-07)
(0.000774356 -6.62952e-08 1.5266e-07)
(0.000775077 -5.64696e-08 1.92093e-07)
(0.00103292 -2.29417e-07 2.30798e-07)
(0.000772668 1.14758e-07 7.49872e-08)
(0.000773593 6.21551e-07 8.77301e-08)
(0.00103086 -1.43004e-08 1.27028e-07)
(0.000771217 3.02922e-07 6.10599e-08)
(0.000772052 -8.99489e-08 6.27864e-08)
(0.00102864 2.82986e-07 1.72193e-07)
(0.000769806 5.43725e-07 1.93862e-08)
(0.000770608 4.7011e-07 6.04955e-08)
(0.00102672 5.37689e-07 1.31163e-07)
(0.000768691 6.03222e-07 9.64852e-09)
(0.000769107 8.38241e-07 1.06608e-07)
(0.00102516 1.01498e-06 1.04207e-07)
(0.00076682 4.42179e-07 7.24297e-08)
(0.000767604 2.45889e-09 3.82871e-08)
(0.00102319 7.31851e-07 2.52987e-07)
(0.000765369 4.48619e-07 7.92795e-08)
(0.000766254 4.07787e-07 7.54412e-08)
(0.00102087 5.76397e-07 1.65236e-07)
(0.000763939 2.74334e-07 5.62421e-08)
(0.00076472 4.35142e-07 4.73655e-08)
(0.00101888 7.60473e-07 1.69094e-07)
(0.000762512 2.07551e-08 5.11364e-08)
(0.000763161 -1.16785e-08 4.45832e-08)
(0.00101703 8.78327e-08 1.70962e-07)
(0.000761148 6.00425e-08 1.28618e-08)
(0.000761812 7.73739e-08 4.6315e-08)
(0.00101521 1.91283e-08 1.68695e-07)
(0.000759778 9.16601e-08 9.15429e-08)
(0.000760414 -5.37119e-10 1.42e-08)
(0.00101335 1.54847e-07 1.74076e-07)
(0.000758305 4.75388e-08 1.92092e-07)
(0.000758985 -8.3541e-09 1.25098e-07)
(0.00101153 1.00117e-07 1.66174e-07)
(0.000756973 -1.55971e-08 1.16505e-07)
(0.00075756 3.29642e-08 9.39194e-08)
(0.00100959 1.96644e-08 1.59672e-07)
(0.000755524 -1.27599e-07 3.37129e-08)
(0.000756142 -1.11298e-07 5.70847e-08)
(0.00100779 -7.11817e-08 1.76197e-07)
(0.000753897 -2.07719e-07 -1.00274e-08)
(0.000754662 -2.21433e-07 2.91503e-08)
(0.0010057 -2.95679e-07 1.86618e-07)
(0.000752421 -1.70154e-07 1.29813e-08)
(0.000753252 4.86987e-07 1.48826e-08)
(0.00100355 -2.96111e-07 1.42073e-07)
(0.000751476 -2.70495e-10 7.20494e-08)
(0.000752001 -5.82432e-08 4.27778e-08)
(0.00100196 -1.50619e-07 1.74519e-07)
(0.000750062 2.30376e-07 1.35884e-07)
(0.000750743 -7.60422e-07 2.42406e-07)
(0.00100056 2.18119e-07 2.1814e-07)
(0.000748722 4.912e-07 4.95229e-08)
(0.000749436 4.98076e-07 9.80182e-08)
(0.000998623 4.87397e-07 1.52383e-07)
(0.000746965 4.12006e-07 -2.11242e-08)
(0.000747864 -1.18743e-06 -8.12841e-09)
(0.000996508 8.54293e-07 1.8155e-07)
(0.000745913 1.26574e-07 4.48288e-08)
(0.000746387 1.99666e-07 7.69778e-08)
(0.000994665 2.38279e-07 1.61478e-07)
(0.000744612 6.87084e-08 5.04135e-08)
(0.000745269 4.32739e-08 4.59152e-08)
(0.000993045 1.12048e-07 1.54541e-07)
(0.000743285 1.95957e-07 5.02321e-08)
(0.000744071 1.21061e-06 3.55469e-08)
(0.000991383 6.46277e-08 8.70624e-08)
(0.000741218 2.92808e-07 4.38783e-08)
(0.000742288 1.30282e-06 2.20032e-08)
(0.000989045 4.07096e-07 1.63577e-07)
(0.000740098 2.55925e-07 1.05649e-07)
(0.000740608 7.57604e-08 5.99387e-08)
(0.000986867 3.26842e-07 1.57631e-07)
(0.000739403 -1.2671e-06 1.08628e-07)
(0.00098547 3.45928e-07 1.94793e-07)
(-0.00417304 -0.0236775 0.00052182)
(-0.00918789 -0.00410966 0.000625942)
(0.000585529 0.00425345 0.00123989)
(0.00501252 0.00654272 -0.000589345)
(0.0132776 0.0143962 0.000236205)
(-0.000772982 0.00711507 -0.00241714)
(0.00979757 0.0066993 -0.0002697)
(-0.0161028 -0.00140405 0.000111024)
(0.00399484 -0.00142786 -0.000401661)
(-0.00292852 -0.00138355 0.00140774)
(-0.000265708 -0.0275278 0.000567371)
(0.000913391 -0.00016113 -0.000157285)
(-0.0133552 -0.0244994 -0.000522402)
(-0.000425146 -0.0253835 -0.0001963)
(-0.00110998 -0.0339403 -0.00146376)
(0.00861053 -0.0435142 -0.00098754)
(0.00529451 -0.0285946 -0.00196968)
(0.0364714 0.0185731 -0.00176128)
(0.00651879 -0.0012446 -0.000108502)
(-0.00405683 0.00383586 0.00127808)
(0.00296486 0.00406981 0.000453725)
(-0.00337765 0.00792479 -0.000599565)
(-0.0101027 0.00388928 0.000826635)
(-0.0052894 0.022997 -0.00326182)
(0.0135747 0.00820031 0.00358353)
(0.000239258 0.00130599 0.000788673)
(0.0144107 -0.00586578 0.00125117)
(-0.00470259 -0.00500078 0.000785849)
(0.000183369 -0.0057517 0.000740414)
(0.00134732 -0.00406755 0.00207986)
(2.24757e-05 -0.00176674 4.47958e-05)
(-0.00141034 -0.00216223 6.73298e-05)
(0.00088242 -0.00137856 2.90209e-05)
(0.000918603 -0.00540993 4.10876e-05)
(-0.000333552 -0.00296139 5.23748e-05)
(0.000897109 -0.000196761 -2.16329e-06)
(0.00115217 0.00019868 -7.45731e-05)
(0.00100087 -0.000146669 1.17416e-05)
(0.00119002 0.000317074 1.508e-05)
(0.000995039 8.90771e-05 7.32053e-05)
(0.000371822 -5.69457e-05 1.8981e-05)
(0.00044931 -4.3556e-05 -2.06736e-06)
(0.000509417 -5.93716e-05 3.28947e-06)
(0.00077869 -5.97406e-05 8.09766e-06)
(0.000383821 -6.88965e-05 2.21693e-05)
(0.00064128 -0.000103035 4.57483e-05)
(0.000672044 -0.000130182 5.24603e-05)
(0.000453869 -2.48785e-05 1.43493e-06)
(0.000794559 -2.92116e-05 -5.9984e-07)
(0.000894526 -3.80522e-05 -4.90767e-07)
(0.00117844 -4.43436e-05 -7.30228e-07)
(0.000586119 -4.36053e-05 -4.18393e-06)
(0.000602225 -4.31265e-05 -5.61935e-06)
(0.000952298 -8.03421e-05 -4.80408e-06)
(0.000985122 -7.71968e-05 -6.56096e-06)
(0.000794297 -1.7923e-05 -3.11463e-07)
(0.000785105 -2.10474e-05 -8.39519e-07)
(0.00103752 -2.90208e-05 -7.3655e-09)
(0.000793276 -1.04667e-05 1.59367e-07)
(0.000801692 -1.3047e-05 2.27811e-07)
(0.00106356 -1.64329e-05 2.12667e-07)
(0.000792287 -6.34456e-06 9.06697e-08)
(0.000794784 -7.52694e-06 9.22694e-08)
(0.00105633 -1.02322e-05 1.64404e-07)
(0.000791348 -3.78701e-06 7.61516e-08)
(0.000793595 -4.77769e-06 9.96736e-08)
(0.00105584 -5.98686e-06 1.70598e-07)
(0.000790263 -2.34287e-06 2.72566e-08)
(0.00079171 -3.06308e-06 4.73541e-08)
(0.00105433 -3.71111e-06 1.75327e-07)