/*--------------------------------*- C++ -*----------------------------------*\
| =========                 |                                                 |
| \\      /  F ield         | OpenFOAM: The Open Source CFD Toolbox           |
|  \\    /   O peration     | Version:  5.0                                   |
|   \\  /    A nd           | Web:      www.OpenFOAM.org                      |
|    \\/     M anipulation  |                                                 |
\*---------------------------------------------------------------------------*/
FoamFile
{
    version     2.0;
    format      ascii;
    class       surfaceVectorField;
    location    "2.5";
    object      Uf_0;
}
// * * * * * * * * * * * * * * * * * * * * * * * * * * * * * * * * * * * * * //

dimensions      [0 1 -1 0 0 0 0];

internalField   nonuniform List<vector> 
29467
(
(0.00188833 -0.00718481 0.000454836)
(-0.000846046 -0.00818226 -0.000286134)
(-0.00708954 -0.00439281 0.000905513)
(0.00134837 -0.0182927 0.00020439)
(0.00636652 -0.0133652 -0.000386173)
(0.00201126 -0.0148402 -0.000613526)
(0.00562655 -0.00951515 0.00110537)
(0.0120258 -0.00713646 0.00516612)
(0.0142124 0.0115811 0.00374963)
(0.0267706 0.00635734 0.0036039)
(-0.00276023 0.0162566 0.0028749)
(-0.00276023 0.0162566 0.0028749)
(-0.00276023 0.0162566 0.0028749)
(-0.00276023 0.0162566 0.0028749)
(0.0243353 0.00531865 0.00238644)
(-0.00276719 -0.0478737 0.00554684)
(0.0216484 -0.00512028 0.00222653)
(-0.0307551 0.00183682 0.00994381)
(0.00520039 0.0107283 -0.000189075)
(0.00929334 0.00836398 0.000144105)
(-0.00144565 0.00095303 -0.000775504)
(-0.00130008 0.0103426 0.0013188)
(-0.00130008 0.0103426 0.0013188)
(-0.00130008 0.0103426 0.0013188)
(-0.00130008 0.0103426 0.0013188)
(-4.72044e-06 0.0123838 2.88864e-05)
(0.00177755 0.00562355 0.000134379)
(-0.000432608 0.00252549 8.52243e-05)
(0.00338658 0.00673984 0.000452219)
(0.000369319 -0.000104139 2.805e-05)
(0.000385993 -5.841e-05 -1.44409e-06)
(0.000667355 -6.12457e-05 7.15921e-06)
(0.000324454 -3.57796e-05 2.38732e-05)
(0.000578934 -0.000236523 6.57078e-05)
(0.000566444 -2.70882e-05 5.50726e-05)
(0.000303648 -2.80748e-05 2.39694e-06)
(0.000547288 -2.95693e-05 7.32578e-06)
(0.000521371 -5.16497e-05 -1.83899e-06)
(0.000280079 -4.15419e-05 -9.66574e-07)
(0.000754582 -3.30461e-05 -1.24453e-06)
(0.000783763 -6.35625e-05 -2.13008e-06)
(0.00101784 -4.25358e-05 -1.24093e-06)
(0.000512524 -5.68765e-05 -4.3134e-06)
(0.000529663 -5.19479e-05 -4.10406e-06)
(0.00087138 -8.3772e-05 -4.02158e-06)
(0.000905634 -7.16732e-05 -4.65867e-06)
(0.00076671 -1.8202e-05 -1.8591e-08)
(0.000771965 -2.87202e-05 -1.72598e-07)
(0.00101377 -2.06356e-05 1.54922e-07)
(0.000775969 -1.09961e-05 1.05558e-07)
(0.000778913 -2.06531e-05 8.18448e-08)
(0.00103172 -1.28021e-05 1.85835e-07)
(0.00078024 -6.60512e-06 6.74814e-08)
(0.000782657 -1.21623e-05 5.65842e-08)
(0.00103918 -7.30112e-06 1.79113e-07)
(0.000782955 -4.10051e-06 2.98891e-08)
(0.000784172 -7.61311e-06 5.58116e-08)
(0.00104317 -4.66471e-06 1.69669e-07)
(0.000784351 -2.29288e-06 3.39604e-08)
(0.00078513 -4.67687e-06 2.32388e-08)
(0.00104584 -2.80661e-06 1.79986e-07)
(0.000783311 -1.22858e-06 6.09066e-08)
(0.000784685 -3.18312e-06 5.87676e-08)
(0.00104576 -1.19692e-06 1.59193e-07)
(0.000782633 -8.5026e-07 2.89107e-08)
(0.000783553 -1.96841e-06 4.85048e-08)
(0.00104436 -7.90842e-07 1.82574e-07)
(0.000781465 -5.86873e-07 2.95321e-08)
(0.000782456 4.50488e-08 4.68969e-08)
(0.00104313 -6.64164e-07 1.52245e-07)
(0.000780483 -3.15333e-07 -7.19487e-09)
(0.000781231 -7.66738e-07 4.76618e-08)
(0.00104163 -3.94061e-07 1.74469e-07)
(0.000778955 -2.05299e-07 -3.2148e-09)
(0.000779845 -4.31142e-07 -2.11216e-08)
(0.00104001 -1.3146e-07 9.02959e-08)
(0.000777174 -2.64448e-07 6.75137e-08)
(0.000778267 -7.4541e-07 5.05544e-08)
(0.00103768 -2.18734e-07 1.85351e-07)
(0.000776347 -2.1414e-07 7.30847e-08)
(0.000776912 4.33586e-09 5.1962e-08)
(0.00103594 -3.50785e-07 1.94444e-07)
(0.000774643 -2.60357e-08 4.78511e-08)
(0.000775536 -7.58043e-08 6.72476e-08)
(0.00103436 -1.11347e-07 1.79746e-07)
(0.000773079 7.27221e-09 1.06041e-08)
(0.000773819 1.29466e-07 1.99288e-08)
(0.00103206 1.46409e-07 1.53403e-07)
(0.000771594 -6.27567e-08 2.16583e-08)
(0.00077223 1.63717e-07 -1.12046e-09)
(0.00103005 -2.48862e-09 1.51311e-07)
(0.000770038 5.38398e-08 2.88653e-08)
(0.00077096 -1.62541e-07 3.92759e-08)
(0.0010281 -5.12263e-08 1.85106e-07)
(0.000768482 2.0004e-07 2.46239e-08)
(0.000769446 2.0872e-07 3.10959e-08)
(0.00102594 3.12463e-07 1.88443e-07)
(0.00076705 2.33682e-07 4.98875e-08)
(0.000767799 1.52898e-07 6.57585e-08)
(0.00102402 3.86375e-07 1.80243e-07)
(0.000765708 1.81414e-07 5.2863e-08)
(0.00076628 -7.18749e-07 5.71396e-08)
(0.00102222 3.77564e-07 2.02033e-07)
(0.000764161 1.93917e-07 6.78533e-08)
(0.000764911 8.75768e-09 4.46071e-08)
(0.0010204 1.58893e-07 1.73774e-07)
(0.000762213 2.96452e-08 8.19993e-08)
(0.000763067 -2.27519e-07 4.80203e-08)
(0.00101796 3.52018e-07 2.4377e-07)
(0.000760699 -4.45919e-07 5.89876e-09)
(0.000761112 -3.58009e-07 -2.97656e-09)
(0.00101556 -3.15698e-07 2.17019e-07)
(0.000759269 -6.16858e-07 -4.07198e-08)
(0.000759904 1.87406e-06 3.229e-08)
(0.00101375 -9.09516e-07 -2.37735e-08)
(0.000757559 -5.03359e-07 2.75211e-08)
(0.000758552 9.79825e-07 5.78233e-09)
(0.00101152 -7.53899e-07 8.60979e-08)
(0.000756534 -3.52685e-07 6.14197e-08)
(0.000757183 1.90598e-07 1.38348e-07)
(0.0010097 -5.80541e-07 1.59502e-07)
(0.000755323 -1.17452e-07 4.36101e-08)
(0.000756104 8.9705e-09 1.1975e-07)
(0.00100843 -3.05263e-07 1.18375e-07)
(0.000753601 -6.16077e-09 4.04145e-08)
(0.000754505 1.01418e-07 4.09544e-08)
(0.00100647 5.9433e-08 1.65678e-07)
(0.000752061 -2.99126e-08 4.51487e-08)
(0.000752785 2.40355e-07 3.83614e-08)
(0.00100421 -1.25662e-08 1.63337e-07)
(0.000750547 1.22128e-08 3.27732e-08)
(0.000751429 8.71076e-08 4.50082e-08)
(0.00100218 -1.11773e-08 1.69649e-07)
(0.000749135 1.78767e-07 3.82725e-08)
(0.000749981 1.06097e-07 3.45616e-08)
(0.00100014 9.77426e-08 1.59217e-07)
(0.000747592 3.37211e-07 6.22511e-08)
(0.000748449 2.38594e-07 3.89114e-08)
(0.000998256 4.6016e-07 1.7771e-07)
(0.000746795 2.02365e-07 4.77629e-08)
(0.000747096 -1.03439e-06 4.79403e-08)
(0.000996836 4.94539e-07 1.86246e-07)
(0.000745291 2.29207e-08 4.46777e-08)
(0.000745817 6.27474e-08 4.32634e-08)
(0.00099521 6.52834e-08 1.71267e-07)
(0.000743817 -9.60217e-08 7.34917e-08)
(0.000744336 -6.28884e-08 4.45991e-08)
(0.000993102 1.97359e-08 1.70937e-07)
(0.000742488 -2.23368e-07 1.63548e-07)
(0.000743031 -3.70994e-07 5.42443e-08)
(0.000991521 -2.9643e-07 1.72497e-07)
(0.000740962 -1.7905e-07 1.36886e-07)
(0.000741728 -4.07139e-07 1.90367e-07)
(0.00098948 -3.32296e-07 1.81844e-07)
(0.000739302 -1.18285e-07 4.58029e-08)
(0.000740204 1.26458e-07 4.02168e-08)
(0.000987255 -1.67133e-07 1.60746e-07)
(0.000738278 -2.09318e-07 5.38629e-08)
(0.000738743 -1.03537e-06 3.99814e-08)
(0.00098558 -1.87338e-07 2.09649e-07)
(0.000736915 -3.98439e-07 1.05432e-07)
(0.000737489 -1.44275e-07 5.20218e-08)
(0.000983913 -3.75052e-07 1.68724e-07)
(0.000735631 -4.19347e-07 6.71744e-08)
(0.000736261 -4.0802e-07 1.0571e-07)
(0.000982307 -6.42357e-07 1.60824e-07)
(0.000733622 -2.7628e-07 1.83298e-08)
(0.000734641 1.27702e-06 3.24196e-08)
(0.00098001 -4.44789e-07 7.32222e-08)
(0.000733275 -5.06825e-07 4.46652e-08)
(0.000977589 -3.05467e-07 2.51711e-07)
(0.00381239 6.03391e-05 -0.000176225)
(6.54078e-06 -0.00166832 0.00093779)
(0.00589332 -0.0109486 -1.59494e-05)
(-0.0015012 -0.0292362 0.000846448)
(-0.000692006 -0.0178631 0.00153383)
(-0.00211162 0.00236007 0.000204514)
(0.00177135 0.000706142 3.57236e-05)
(-0.00441009 3.58506e-06 -0.000323514)
(-0.00246608 0.00157265 0.000583725)
(0.00667897 0.000835433 0.00044985)
(0.00207363 0.00421528 -0.000412199)
(0.00165254 0.0039421 -0.000329256)
(0.00349031 0.0109292 -0.000107371)
(0.0164464 0.0166166 0.00307451)
(0.0103093 0.0214059 -0.000627418)
(0.00541284 0.0062173 -0.00162076)
(0.0072373 0.0188429 -0.000358534)
(0.00927748 0.0145549 -0.000652862)
(-0.0115857 -0.00864789 0.000885726)
(0.00248857 0.00863814 -0.000101772)
(-0.0193126 -0.0102935 0.00161742)
(-0.0361123 -0.00463259 -0.00333181)
(-0.0168204 0.0154149 0.00103083)
(-0.0442776 -0.0405415 -0.00586655)
(-0.0747311 -0.014768 -0.00354978)
(-0.0678413 -0.0446286 -0.00647546)
(-0.0277035 -0.0272585 -0.0033072)
(-0.0532107 -0.00280208 -0.00562768)
(0.00945978 -0.00301796 0.000751785)
(0.00529978 -0.00279421 0.00060358)
(-0.011535 0.0141028 0.000503856)
(0.00322772 0.00477908 -0.000703974)
(0.0106215 0.00465559 -0.00150252)
(-5.84908e-05 -0.000106121 -5.18325e-05)
(-0.000646427 -0.00385243 -1.31122e-05)
(-6.82496e-05 0.000447902 -1.84538e-05)
(0.000215003 0.000362042 6.6428e-05)
(-0.000637424 0.000244788 -8.02205e-05)
(0.000499454 -0.000120772 2.01387e-05)
(0.00030274 -3.51447e-05 6.75248e-06)
(0.000358583 -4.3708e-05 1.1551e-05)
(0.000533115 -6.22571e-05 2.18375e-05)
(0.000247454 -3.52833e-05 4.39149e-06)
(0.000792718 -4.40361e-05 -1.0588e-06)
(0.000565099 -4.20969e-05 -8.14839e-07)
(0.00107154 -7.66941e-05 -1.66321e-06)
(0.000572043 -5.97004e-05 -4.21991e-06)
(0.000573403 -6.20351e-05 -3.58629e-06)
(0.00096674 -8.09983e-05 -4.74836e-06)
(0.000964784 -8.71257e-05 -2.89421e-06)
(0.000535979 -6.21807e-05 -4.11625e-06)
(0.000939462 -6.80149e-05 -2.89912e-07)
(0.000878743 -9.8328e-05 -5.25187e-06)
(0.000784367 -2.0909e-05 -7.22456e-08)
(0.000818968 -1.9136e-05 -7.77423e-07)
(0.00104433 -1.76551e-05 9.61817e-08)
(0.000786475 -1.74491e-05 3.28796e-08)
(0.000783339 -2.51048e-05 -1.74122e-07)
(0.0010455 -2.39774e-05 1.59056e-07)
(0.000786593 -1.06202e-05 4.49147e-08)
(0.000791188 -1.42707e-05 1.26561e-07)
(0.00104822 -1.36272e-05 1.70852e-07)
(0.000786542 -6.83985e-06 4.91719e-08)
(0.000788894 -9.54182e-06 8.7758e-08)
(0.00104835 -9.12247e-06 1.74977e-07)
(0.000785915 -4.4184e-06 4.80345e-08)
(0.000788155 -5.90811e-06 5.77267e-08)
(0.00104826 -5.63638e-06 1.77201e-07)
(0.000784794 -2.89877e-06 4.63692e-08)
(0.000786584 -3.80983e-06 4.96101e-08)
(0.00104719 -3.96879e-06 1.76932e-07)
(0.000783441 -1.80869e-06 6.64916e-08)
(0.000784916 -2.31913e-06 5.11754e-08)
(0.00104561 -2.40354e-06 1.76778e-07)
(0.000782219 -1.02021e-06 6.50264e-08)
(0.000783441 -1.03084e-06 7.08416e-08)
(0.00104393 -1.58815e-06 2.15399e-07)
(0.000780657 -4.6201e-07 3.37571e-08)
(0.000781929 -7.10845e-07 -7.9311e-09)
(0.00104218 -6.43517e-07 1.67178e-07)
(0.000779173 -1.19664e-07 3.26245e-08)
(0.000780273 -4.33124e-07 3.7803e-08)
(0.00104011 -3.25335e-07 1.65079e-07)
(0.000777873 1.24909e-07 3.50022e-08)
(0.000778572 -6.85648e-07 7.10018e-08)
(0.00103825 1.45564e-07 1.45455e-07)
(0.000776257 1.82081e-07 4.612e-08)
(0.000776982 -2.33857e-08 3.19536e-08)
(0.00103637 2.54001e-07 1.79353e-07)
(0.000774719 1.53172e-07 3.93404e-08)
(0.000775499 4.38539e-07 5.75059e-08)
(0.0010343 2.73564e-07 1.35383e-07)
(0.000772869 2.8695e-07 8.21096e-09)
(0.000773985 2.28822e-07 2.91848e-08)
(0.00103204 1.82999e-07 1.91798e-07)
(0.000771583 4.16661e-07 1.64843e-08)
(0.00077239 8.34476e-07 4.15309e-08)
(0.00102982 6.43128e-07 1.03337e-07)
(0.000770494 3.71118e-07 4.15091e-08)
(0.0007709 -1.31077e-06 -3.53864e-08)
(0.00102842 5.39916e-07 2.13161e-07)
(0.000768645 2.55624e-07 7.22194e-08)
(0.000769299 3.12291e-07 8.40135e-08)
(0.00102659 5.31186e-07 1.92575e-07)
(0.000767096 4.90916e-08 7.30133e-08)
(0.00076754 3.57619e-07 5.21184e-08)
(0.00102409 2.52814e-07 1.59429e-07)
(0.000765385 -1.47258e-07 4.88877e-08)
(0.000766034 -3.48957e-08 4.57395e-08)
(0.00102184 -2.73625e-08 1.40227e-07)
(0.000764133 -5.58381e-07 2.4773e-08)
(0.000764399 -3.28683e-07 5.35819e-08)
(0.00102006 -3.1413e-07 1.72009e-07)
(0.000761705 -7.155e-07 -3.69395e-08)
(0.000762874 2.55253e-06 -5.82229e-08)
(0.00101761 -1.17138e-06 5.63577e-08)
(0.000760193 -5.22404e-07 2.34036e-08)
(0.000761356 5.14934e-07 -1.63443e-08)
(0.00101485 -7.50915e-07 1.10176e-07)
(0.000759348 -3.84674e-07 7.88004e-08)
(0.000760078 -1.29671e-07 1.02378e-07)
(0.00101345 -6.38853e-07 2.55121e-07)
(0.000758073 1.08928e-08 1.16567e-07)
(0.000759047 -6.97688e-08 4.86844e-08)
(0.00101207 -3.71219e-07 2.26054e-07)
(0.000756721 3.92886e-07 1.96684e-07)
(0.000757659 5.65333e-07 2.42133e-07)
(0.00101028 4.59086e-07 1.32261e-07)
(0.000755551 2.72046e-07 1.17119e-07)
(0.000755951 8.50968e-07 1.63376e-07)
(0.0010087 6.79683e-07 8.31734e-08)
(0.000753457 9.07921e-08 3.89021e-08)
(0.000754277 9.53295e-07 6.64077e-08)
(0.00100644 1.16346e-07 1.64989e-07)
(0.000752172 1.49534e-07 3.82188e-08)
(0.000752857 1.21955e-08 4.26965e-08)
(0.00100413 1.70855e-07 1.70165e-07)
(0.000750916 1.95053e-07 4.67999e-08)
(0.000751484 -1.34465e-07 4.66659e-08)
(0.00100251 2.53062e-07 1.67509e-07)
(0.000749304 2.73991e-07 3.51991e-08)
(0.000750078 2.06005e-07 4.73429e-08)
(0.0010007 3.10984e-07 1.76743e-07)
(0.000747825 3.71124e-07 2.45977e-08)
(0.000748568 4.28075e-07 3.13608e-08)
(0.000998541 5.06098e-07 1.58734e-07)
(0.000746162 2.39946e-07 4.34422e-08)
(0.00074693 -8.8431e-07 4.91417e-08)
(0.000996362 5.55849e-07 1.78363e-07)
(0.000744936 -8.56053e-08 4.31845e-08)
(0.000745409 -1.18229e-07 5.15382e-08)
(0.000994534 1.06936e-07 1.6328e-07)
(0.000743489 -4.04672e-07 2.53487e-08)
(0.000743938 5.69959e-07 4.78232e-08)
(0.000992681 -3.14915e-07 1.24679e-07)
(0.000742267 -4.74508e-07 8.10216e-08)
(0.000742946 -7.42757e-07 2.80346e-08)
(0.000990885 -7.23917e-07 1.77287e-07)
(0.00074104 -2.71795e-07 9.37438e-08)
(0.000741983 -8.21772e-08 1.09514e-07)
(0.000989472 -5.67256e-07 1.27695e-07)
(0.00073957 -1.15139e-07 3.43954e-08)
(0.000740401 -1.41818e-07 4.56855e-08)
(0.000987629 -2.20862e-07 1.92983e-07)
(0.00073788 -1.29239e-08 3.81367e-08)
(0.000738871 3.2981e-08 7.03435e-08)
(0.000985449 -1.27879e-07 1.1624e-07)
(0.000736914 -4.40903e-08 5.22828e-08)
(0.00073745 -1.35597e-06 8.71934e-08)
(0.000983745 7.34564e-08 2.16619e-07)
(0.000735379 -2.49047e-07 7.0977e-08)
(0.000736006 -2.57731e-07 6.30414e-08)
(0.000982067 -1.75559e-07 1.69565e-07)
(0.000734058 -3.01544e-07 5.87513e-08)
(0.000734578 -7.48438e-08 7.43766e-08)
(0.00098004 -4.70834e-07 2.60113e-07)
(0.000733651 1.71897e-07 4.69988e-08)
(0.000978807 -3.27362e-07 7.84574e-08)
(0.017723 -0.0010214 -0.00399794)
(0.0256462 0.00704622 -0.000332401)
(-0.00309657 0.0216067 0.00199882)
(0.022213 0.0107333 -0.00362549)
(0.0213598 0.0127544 -0.00187189)
(0.00574656 0.00492953 -0.0014719)
(0.00697709 0.000519586 -0.00180139)
(0.0263537 0.0117932 -0.00152259)
(0.0383659 0.0191104 -0.00292974)
(0.0184911 0.0078266 -0.000910414)
(0.0190048 0.00976457 0.00130545)
(0.0444647 0.00211327 -0.0145277)
(0.00632988 0.00163548 0.0443909)
(0.00614494 0.0115304 0.0245932)
(0.0103995 -0.0177162 -0.0451766)
(-0.0096734 -0.00982175 -0.00124674)
(0.00111338 -0.0133864 -0.00168037)
(0.0111812 -0.0138332 -0.000487463)
(0.00266554 -0.00232252 -0.0017549)
(0.00027258 -0.0192792 -0.00248557)
(0.0362775 0.00716606 -0.000836367)
(0.0261222 0.0278351 0.0031105)
(-0.0216342 0.00352463 0.00539728)
(-0.0266997 0.0361235 0.00939203)
(-0.0563131 0.00294841 0.00137426)
(-0.0115072 0.0038773 0.000194391)
(0.0055938 2.23904e-05 0.000344356)
(0.00492608 0.00169459 0.000454834)
(-0.00356539 0.000353034 0.00128674)
(0.0335045 -0.0123826 -0.000170642)
(0.00375415 -0.00351687 0.00236964)
(0.00579353 -0.00531991 0.000422943)
(0.0336574 -0.000812412 0.00640067)
(-0.00129685 -0.000155218 -1.97098e-05)
(0.00092268 -0.000669773 9.62884e-05)
(-0.000528694 -0.000328268 6.34265e-06)
(0.000214848 6.37202e-05 1.4352e-05)
(-0.00108058 -0.000523952 0.000107341)
(0.000574094 -5.07947e-05 5.85134e-05)
(0.000556974 -0.000242365 1.44317e-05)
(0.00087017 -3.43354e-05 -1.46714e-05)
(0.000768342 -0.000117417 -3.1651e-05)
(0.000783054 -0.000114288 7.10292e-06)
(0.00030303 -3.69862e-05 -1.81715e-06)
(0.000452305 -4.98664e-05 -2.84202e-06)
(0.00045838 -6.64038e-05 6.07938e-07)
(0.000724446 -6.75203e-05 -4.96274e-07)
(0.000315274 -3.97269e-05 -2.01749e-06)
(0.000532317 -6.00046e-05 -2.64515e-06)
(0.000556268 -6.97481e-05 -2.79833e-06)
(0.000790822 -3.00083e-05 -8.79497e-07)
(0.000880643 -4.13087e-05 -1.42252e-06)
(0.00112807 -3.76843e-05 -8.24052e-07)
(0.000570475 -4.60451e-05 -3.92942e-06)
(0.000594989 -4.17395e-05 -4.87279e-06)
(0.000919308 -8.09956e-05 -5.06529e-06)
(0.000966114 -7.55015e-05 -6.38499e-06)
(0.000793135 -2.16806e-05 -8.05399e-08)
(0.000793858 -2.84063e-05 -4.43283e-07)
(0.00103699 -3.39213e-05 6.27276e-08)
(0.000791996 -1.24513e-05 1.69417e-07)
(0.00080276 -1.53589e-05 1.7917e-07)
(0.0010577 -1.84119e-05 2.11764e-07)
(0.000790626 -7.67375e-06 9.63226e-08)
(0.000794884 -9.9324e-06 -9.32298e-08)
(0.00105313 -1.13439e-05 1.8305e-07)
(0.00078869 -4.74154e-06 5.9305e-08)
(0.000791832 -5.52957e-06 4.09114e-08)
(0.00105227 -6.95247e-06 1.78505e-07)
(0.000786643 -2.93468e-06 5.44158e-08)
(0.00078885 -3.30421e-06 5.2107e-08)
(0.00104979 -4.32946e-06 1.78163e-07)
(0.000784711 -1.77646e-06 5.5519e-08)
(0.000786368 -1.96871e-06 5.06583e-08)
(0.00104733 -2.6487e-06 1.77736e-07)
(0.000783277 -1.10064e-06 -2.09042e-09)
(0.000784289 -1.33704e-06 5.09847e-08)
(0.00104533 -1.57631e-06 1.80156e-07)
(0.000781452 -7.10533e-07 -3.89996e-09)
(0.000782419 -4.53354e-07 -3.21368e-09)
(0.00104321 -1.05254e-06 1.75681e-07)
(0.000779733 -4.47394e-07 7.61697e-08)
(0.000780603 -2.24938e-07 4.72062e-08)
(0.001041 -6.72254e-07 1.70551e-07)
(0.000777531 -2.60139e-07 6.79657e-08)
(0.000778807 1.82584e-07 6.36054e-08)
(0.0010384 -4.50057e-07 1.67447e-07)
(0.000776312 -1.52329e-07 4.33313e-08)
(0.000777117 -4.07732e-07 3.05548e-08)
(0.0010361 -2.22084e-07 1.69496e-07)
(0.000774672 -1.02132e-07 4.73593e-08)
(0.000775562 -1.02393e-07 6.19987e-08)
(0.00103427 -1.74301e-07 2.17419e-07)
(0.000773601 1.5163e-08 6.25007e-08)
(0.000774132 -3.5632e-07 4.60689e-08)
(0.00103252 -9.0278e-08 1.71731e-07)
(0.000771583 1.0203e-07 -1.03153e-08)
(0.000772499 -6.76487e-07 3.69123e-08)
(0.0010305 1.26734e-07 3.19115e-07)
(0.000769904 -1.18286e-07 7.08005e-09)
(0.000770625 -4.91144e-07 -2.27792e-08)
(0.00102796 1.5365e-07 1.27454e-07)
(0.000767972 -2.70211e-07 6.39226e-08)
(0.00076911 -1.06792e-06 5.47569e-08)
(0.00102557 -4.55746e-07 3.03583e-07)
(0.000766569 -2.40887e-07 2.48466e-08)
(0.000767577 7.26777e-07 4.15926e-08)
(0.00102331 -2.73251e-07 1.3512e-07)
(0.000765113 -2.58481e-07 5.04313e-08)
(0.000766013 -9.01786e-08 4.79992e-08)
(0.00102151 -3.50804e-07 1.69741e-07)
(0.000763042 -2.80922e-07 -2.93787e-08)
(0.000764371 -2.07524e-07 7.00022e-08)
(0.00101897 -2.71186e-07 2.1172e-07)
(0.000762616 -2.22978e-08 -3.76408e-08)
(0.000763197 -1.18846e-06 -2.36317e-08)
(0.00101742 -3.87512e-07 3.39512e-07)
(0.000760975 4.84121e-07 6.25927e-08)
(0.000761987 -7.61882e-07 3.74466e-08)
(0.00101623 4.13133e-07 2.73404e-07)
(0.000759936 6.74765e-07 7.22787e-08)
(0.000760314 -1.09099e-06 4.46154e-08)
(0.00101423 9.19165e-07 1.98525e-07)
(0.000758641 5.37592e-07 1.74189e-07)
(0.000758873 -1.87313e-06 2.31655e-08)
(0.0010129 8.85586e-07 2.81334e-07)
(0.000756985 3.66808e-07 2.0885e-07)
(0.000757444 4.02985e-07 1.62915e-07)
(0.00101101 5.46783e-07 1.97359e-07)
(0.000754603 1.60879e-07 1.12695e-07)
(0.000755693 6.83385e-08 9.13873e-08)
(0.001008 4.2448e-07 3.06533e-07)
(0.00075362 7.84593e-08 7.02096e-08)
(0.000754174 2.57971e-07 6.4849e-08)
(0.00100583 9.45951e-10 1.76248e-07)
(0.000752203 1.53882e-07 5.11424e-08)
(0.000752951 -6.11942e-08 4.44675e-08)
(0.00100438 1.95135e-07 1.70898e-07)
(0.000750647 1.01217e-07 4.72087e-08)
(0.000751418 4.98047e-09 4.3354e-08)
(0.00100235 1.93317e-07 1.68538e-07)
(0.000749315 7.56179e-08 4.35095e-08)
(0.000750045 1.27926e-07 4.70461e-08)
(0.00100045 6.96733e-08 1.64409e-07)
(0.000747749 8.99803e-08 5.58992e-08)
(0.000748586 6.63598e-07 2.74501e-08)
(0.000998557 1.08275e-07 1.63098e-07)
(0.000746098 1.01244e-07 5.72369e-08)
(0.000746944 -1.2442e-07 5.39729e-08)
(0.000996332 1.03031e-07 1.33489e-07)
(0.000744461 1.03299e-07 5.61781e-08)
(0.000745411 1.59248e-07 4.5028e-08)
(0.00099412 1.5131e-07 1.67234e-07)
(0.000743089 3.06327e-07 5.05151e-08)
(0.00074419 4.80829e-07 1.34427e-07)
(0.000992066 1.3781e-07 1.69957e-07)
(0.000743027 3.84453e-07 5.65016e-08)
(0.000743042 -2.16466e-06 3.80468e-08)
(0.000991211 7.30409e-07 1.48437e-07)
(0.000741275 1.77098e-07 6.14749e-08)
(0.000741722 2.63991e-07 4.46373e-08)
(0.000990114 3.88052e-07 1.73741e-07)
(0.000739708 1.3347e-07 8.16261e-08)
(0.000740345 1.7661e-07 3.76688e-08)
(0.00098781 2.17064e-07 1.59265e-07)
(0.000738338 2.6519e-07 1.19395e-07)
(0.000739034 -8.6846e-08 7.91025e-08)
(0.00098595 2.53553e-07 1.73498e-07)
(0.000736603 2.87033e-07 9.79594e-08)
(0.000737476 -1.30203e-07 8.88363e-08)
(0.000983855 5.08993e-07 1.09117e-07)
(0.000735177 1.96773e-07 6.64375e-08)
(0.000735892 -4.91571e-08 5.22904e-08)
(0.000981628 2.90655e-07 1.55305e-07)
(0.000733989 1.4344e-07 6.26324e-08)
(0.00073451 -3.6396e-07 4.86771e-08)
(0.000979829 2.53047e-07 1.70289e-07)
(0.000733472 1.20871e-07 5.4719e-08)
(0.000978583 1.2506e-07 1.53919e-07)
(-0.0365231 0.0131946 0.00308011)
(-0.0226832 0.0157655 0.000186383)
(-0.00619855 -0.000694499 0.000226741)
(-0.0322293 0.005286 0.00283525)
(-0.0138853 -0.00779402 -2.0238e-05)
(-0.0203161 -0.0236662 0.000164957)
(-0.0508516 -0.0136967 -0.000740611)
(-0.0209499 0.00319519 0.000877929)
(-0.0265273 -0.00681775 -0.000607199)
(0.0230929 -0.0340527 -0.00125422)
(0.0296733 -0.0122523 0.00120148)
(0.0163015 -0.0192862 -0.00047511)
(0.0253944 -0.0112602 -0.000380158)
(0.033268 -0.0160389 0.00123134)
(-0.00144926 -0.00125834 0.000747593)
(0.00572718 -0.00286006 0.000357668)
(0.0041183 -0.00278831 0.00040138)
(-0.00513674 -0.0011299 -9.90114e-05)
(-0.000699204 -0.0221375 0.00279952)
(0.0280531 -0.0153915 -0.000502157)
(0.00254325 -0.017343 -0.00105601)
(0.0417237 -0.00983878 0.000888928)
(0.00897306 0.0128773 0.000138614)
(0.00996877 -0.0239431 0.00225576)
(0.0136686 -0.00302226 0.00540862)
(0.00154113 0.00141059 0.00027711)
(-0.00368521 -0.000420746 -6.46426e-05)
(-0.00257926 -0.000941296 2.83798e-05)
(-0.00172945 0.000873402 0.00043768)
(-0.000357361 0.0028369 0.000363049)
(0.00106454 -0.00194991 2.75218e-05)
(-0.000128777 -0.00310335 -7.18934e-05)
(0.000700289 -0.00162905 -8.10507e-06)
(0.00350198 -0.00383885 -0.000136823)
(0.00193883 -0.00572523 5.75079e-05)
(0.000540749 -0.000218989 1.71193e-05)
(0.00103416 -0.000282238 0.000102111)
(0.00115874 -5.19149e-05 6.72629e-05)
(0.00143418 -0.000373287 -5.53871e-05)
(0.0010138 -0.00014323 4.33135e-05)
(0.000368634 -5.7185e-05 -3.84985e-07)
(0.000511373 -5.6312e-05 -3.12022e-06)
(0.000518137 -3.80156e-05 2.43293e-07)
(0.000807939 -0.000110065 -1.8992e-08)
(0.000391144 -5.36267e-05 1.44499e-06)
(0.000673438 -0.000111805 5.07007e-06)
(0.000724086 -0.000103328 8.34787e-06)
(0.000484289 -7.35636e-05 3.43862e-07)
(0.000827624 -2.61664e-05 -9.86631e-07)
(0.0009219 -8.68101e-06 -1.06852e-06)
(0.00120242 -4.15849e-05 -1.13071e-06)
(0.000634548 -4.07969e-05 -3.95668e-06)
(0.000642406 -2.79073e-05 -5.10045e-06)
(0.00103252 -7.9146e-05 -5.09618e-06)
(0.00104927 -5.32719e-05 -6.61742e-06)
(0.000812731 -1.61573e-05 -1.83776e-07)
(0.000806524 -9.44624e-06 -6.18099e-07)
(0.00106986 -2.7784e-05 1.61267e-08)
(0.000802668 -8.95804e-06 -8.33873e-08)
(0.000811815 -5.05236e-06 1.81489e-07)
(0.00107652 -1.5045e-05 1.95234e-07)
(0.000795865 -5.37201e-06 -1.48685e-07)
(0.000799398 -3.26121e-06 -1.37116e-07)
(0.00106271 -8.6925e-06 1.62886e-07)
(0.000791577 -3.32846e-06 3.37097e-08)
(0.000794405 -2.22989e-06 1.1105e-07)
(0.00105705 -5.531e-06 1.78948e-07)
(0.000788367 -1.92181e-06 4.835e-08)
(0.000790619 -1.33391e-06 5.06007e-08)
(0.00105258 -3.26849e-06 1.76862e-07)
(0.000785724 -1.07836e-06 4.61238e-08)
(0.000787428 -7.07866e-07 3.10258e-08)
(0.00104906 -1.80764e-06 1.75932e-07)
(0.000783383 -7.66261e-07 4.9879e-08)
(0.000784682 -4.19345e-07 4.26562e-08)
(0.00104593 -1.03147e-06 1.73767e-07)
(0.000781522 -6.68614e-07 4.78762e-08)
(0.000782543 -2.87805e-07 5.15091e-08)
(0.00104331 -9.69874e-07 1.85061e-07)
(0.000779672 -6.36775e-07 3.46366e-08)
(0.000780645 -1.64006e-07 4.53741e-08)
(0.00104087 -7.50034e-07 1.91942e-07)
(0.00077829 -5.5755e-07 2.6205e-08)
(0.000778908 2.95105e-08 1.19649e-07)
(0.00103881 -8.89085e-07 1.67137e-07)
(0.000776376 -4.15857e-07 4.92121e-08)
(0.000777296 4.40402e-09 6.17318e-08)
(0.00103671 -5.90627e-07 1.74591e-07)
(0.00077491 -3.59402e-07 6.07135e-08)
(0.000775635 -1.07519e-07 6.71487e-08)
(0.00103447 -5.26633e-07 1.65155e-07)
(0.000773237 -4.60045e-07 2.04834e-08)
(0.000774008 -2.423e-07 2.9411e-08)
(0.00103242 -4.19468e-07 1.75463e-07)
(0.000771434 -5.27225e-07 2.44674e-08)
(0.000772417 8.54854e-07 2.91579e-08)
(0.00103012 -7.89943e-07 8.8456e-08)
(0.000769756 -4.40751e-07 2.48731e-08)
(0.000770735 -9.73005e-08 7.66886e-08)
(0.00102769 -5.92173e-07 1.57068e-07)
(0.000768788 -3.00758e-07 3.2431e-08)
(0.000769287 7.66233e-08 3.53958e-08)
(0.00102605 -5.65981e-07 4.27682e-08)
(0.000766935 -3.62012e-08 6.47432e-08)
(0.000767908 -3.00624e-07 4.97404e-08)
(0.00102423 -2.26784e-07 2.72521e-07)
(0.000765426 1.7895e-07 6.75631e-08)
(0.000766281 -1.18538e-07 6.22792e-08)
(0.00102184 1.46243e-07 1.72442e-07)
(0.000764167 5.87669e-07 7.57787e-08)
(0.00076488 -5.30511e-07 5.40793e-08)
(0.00102001 3.85309e-07 1.71706e-07)
(0.00076294 7.63552e-07 5.14364e-08)
(0.000763413 -2.20976e-06 3.72593e-08)
(0.00101847 1.26369e-06 2.18428e-07)
(0.000761146 6.7001e-07 1.94671e-08)
(0.000761867 3.42493e-07 3.33797e-08)
(0.00101648 8.50406e-07 1.18795e-07)
(0.000759362 7.11366e-07 -4.49098e-09)
(0.000760362 -4.22415e-07 3.21825e-08)
(0.00101404 9.93588e-07 1.49053e-07)
(0.000757532 4.40868e-07 1.18482e-08)
(0.000758532 -6.21555e-07 1.14705e-08)
(0.0010116 9.58787e-07 1.12204e-07)
(0.000756393 5.34657e-08 4.54754e-08)
(0.000756958 -7.30433e-08 4.07773e-08)
(0.0010097 2.61479e-07 1.73704e-07)
(0.000754941 5.03426e-08 4.35492e-08)
(0.000755688 4.05978e-08 4.75173e-08)
(0.00100802 -9.96674e-08 1.70063e-07)
(0.000753691 1.3847e-07 3.91133e-08)
(0.000754283 3.84557e-07 5.38037e-08)
(0.00100615 2.43165e-07 1.4147e-07)
(0.000752137 6.31022e-08 3.66795e-08)
(0.000752856 7.45021e-08 4.1464e-08)
(0.00100437 1.18801e-07 1.68245e-07)
(0.000750734 4.06534e-08 4.31903e-08)
(0.00075139 3.77648e-08 3.31489e-08)
(0.00100235 3.52823e-08 1.62458e-07)
(0.000749416 -8.89881e-08 3.09928e-08)
(0.000749884 -1.38384e-08 5.50321e-08)
(0.0010006 4.20651e-08 1.67745e-07)
(0.000747764 -1.72889e-07 2.55156e-08)
(0.000748482 1.85673e-06 5.25737e-08)
(0.000998582 -3.22094e-07 1.02111e-07)
(0.000746265 -1.9027e-08 4.17668e-08)
(0.000747137 -2.43574e-07 6.41708e-08)
(0.000996415 -1.95382e-07 1.83014e-07)
(0.000744983 1.87711e-07 1.23249e-07)
(0.000745669 1.4195e-07 5.66945e-08)
(0.000994577 9.92941e-08 1.56533e-07)
(0.000744233 4.31522e-07 1.21988e-07)
(0.000744493 3.27849e-07 1.84725e-07)
(0.000993401 4.01845e-07 1.18543e-07)
(0.000741765 4.23266e-07 2.61805e-08)
(0.000743029 -1.13061e-06 5.1015e-08)
(0.000991193 7.66879e-07 1.88297e-07)
(0.000740743 1.63642e-07 2.08333e-08)
(0.000741396 3.32617e-07 1.89522e-08)
(0.000988824 4.22163e-07 1.27676e-07)
(0.000739676 4.61636e-08 3.51325e-08)
(0.000740197 1.58609e-07 3.90608e-08)
(0.000987456 9.30566e-08 1.38296e-07)
(0.00073833 2.46003e-08 4.85407e-08)
(0.000739007 3.9086e-08 4.24783e-08)
(0.000985809 6.48665e-08 1.53441e-07)
(0.000736526 4.5248e-08 4.31784e-08)
(0.000737501 -2.92299e-07 2.06727e-08)
(0.000983786 2.29919e-09 2.16552e-07)
(0.000735381 1.50189e-07 3.45311e-08)
(0.000736023 -2.62261e-07 -5.69809e-08)
(0.000981744 1.08748e-07 1.60355e-07)
(0.000733745 2.1985e-07 4.07618e-08)
(0.000734594 -9.34472e-09 5.68175e-08)
(0.000979827 2.85374e-07 1.64165e-07)
(0.000733198 3.49148e-07 6.53163e-08)
(0.000978335 3.06277e-07 1.16895e-07)
(-0.00144764 -0.0265541 0.000813875)
(-0.00974376 -0.00307553 0.00070262)
(0.00373495 0.0038747 0.000926176)
(0.0053941 0.0107135 -0.00091608)
(0.0186879 0.0123511 0.00015487)
(-0.0020351 0.00613779 -0.00285575)
(0.0118577 0.00448255 -0.00032883)
(-0.0166323 -0.000167968 0.000135557)
(0.00328114 -0.00194306 -0.000757633)
(-0.00813982 -0.00251241 0.00116644)
(-0.00742878 -0.0306663 0.000912753)
(0.00126416 0.00400501 -0.000912594)
(-0.0122223 -0.0281321 -0.000648527)
(0.00545582 -0.0266036 -0.000793051)
(0.00268689 -0.0431402 -0.00179206)
(0.0118225 -0.0480564 -0.000610688)
(0.00830865 -0.0338489 -0.00192432)
(0.0318909 0.0195525 -0.00113633)
(0.0102961 -0.0026725 -0.000356394)
(-0.00683632 -0.00277477 -0.000381329)
(0.00459985 -0.000128186 0.000383144)
(-0.00257437 0.0042009 -0.000440126)
(-0.0100805 0.00567359 0.000790266)
(0.000146364 0.0205351 -0.00196547)
(0.0152064 0.0105354 0.00288017)
(-1.43657e-05 0.000739818 0.000354308)
(0.0114684 -0.00420955 0.000667896)
(-0.00285466 -0.00408081 0.000571182)
(-0.000219867 -0.00408966 0.000472915)
(0.00171834 -0.00351678 0.00152772)
(0.000634751 -0.00190767 4.06483e-05)
(-0.000301294 -0.00246528 2.6883e-05)
(0.00153231 -0.00114736 2.21374e-05)
(0.00195666 -0.00503818 5.53524e-05)
(0.000531483 -0.00270746 5.64924e-05)
(0.00119708 3.43158e-05 -3.65991e-06)
(0.00142629 0.000329773 -7.4639e-05)
(0.00124892 0.000149659 1.09629e-05)
(0.00147797 0.000568006 9.25664e-06)
(0.00123187 0.000297199 7.34077e-05)
(0.000445307 -1.57452e-05 1.86944e-05)
(0.000515727 2.57816e-06 -1.98986e-06)
(0.000585161 6.6311e-06 3.5893e-06)
(0.000903747 1.74121e-05 8.27793e-06)
(0.000451093 -2.17045e-05 2.19976e-05)
(0.000757946 -3.07341e-05 4.57348e-05)
(0.000777032 -4.46313e-05 5.27779e-05)
(0.000553432 1.35043e-05 1.81802e-06)
(0.000832736 3.96547e-06 -7.0014e-07)
(0.000925864 1.9296e-05 -6.9726e-07)
(0.0012378 4.77861e-06 -8.75473e-07)
(0.000644958 -3.69474e-06 -4.41187e-06)
(0.000648244 6.3418e-06 -5.74978e-06)
(0.00103638 -1.87057e-05 -5.37796e-06)
(0.00104647 9.84767e-07 -7.00684e-06)
(0.000816007 6.14047e-07 -2.53095e-07)
(0.000802365 1.19724e-05 -7.51448e-07)
(0.00107058 -2.24468e-06 2.31487e-09)
(0.000804892 1.43495e-07 1.27865e-07)
(0.000811264 6.31038e-06 2.16482e-07)
(0.00108171 -1.24595e-06 2.10949e-07)
(0.000797193 -1.12946e-07 1.22538e-07)
(0.000799102 4.18424e-06 2.66744e-08)
(0.0010651 -1.59449e-06 1.86108e-07)
(0.00079302 -7.83392e-08 1.27961e-07)
(0.000794464 3.16631e-07 1.35766e-07)