/*--------------------------------*- C++ -*----------------------------------*\
| =========                 |                                                 |
| \\      /  F ield         | OpenFOAM: The Open Source CFD Toolbox           |
|  \\    /   O peration     | Version:  5.0                                   |
|   \\  /    A nd           | Web:      www.OpenFOAM.org                      |
|    \\/     M anipulation  |                                                 |
\*---------------------------------------------------------------------------*/
FoamFile
{
    version     2.0;
    format      ascii;
    class       volScalarField;
    location    "4.3";
    object      alpha.water;
}
// * * * * * * * * * * * * * * * * * * * * * * * * * * * * * * * * * * * * * //

dimensions      [0 0 0 0 0 0 0];

internalField   nonuniform List<scalar> 
8311
(
1.05169
1.02079
0.984928
1.01225
1.00965
1.0016
0.576452
-2.19429e-17
-3.08053e-19
2.26721e-22
2.18993e-18
1.42238e-19
5.27149e-22
1.11635e-25
1.04809e-29
3.47209e-33
1.43963e-36
6.31808e-40
2.82356e-43
1.14533e-46
6.10811e-50
2.50746e-53
1.09883e-56
3.95262e-60
2.18464e-63
4.6729e-66
1.04969e-69
2.04662e-73
7.15059e-76
1.78375e-79
1.80491e-82
2.22731e-86
5.27517e-89
1.7832e-91
5.99047e-95
5.13953e-98
1.9656e-101
7.3047e-104
1.32917e-107
1.25617e-111
8.99282e-115
4.25119e-117
3.6352e-120
1.31424e-122
1.99418e-126
2.09637e-129
3.22395e-133
4.07515e-137
1.32256e-138
8.46126e-142
1.05796
1.02757
1.01598
1.03683
1.02216
1.01853
0.865753
-1.73185e-18
-2.93856e-20
1.51584e-16
8.96897e-18
2.79835e-20
4.55126e-23
3.34396e-26
4.79065e-30
1.1348e-33
4.59184e-37
1.98523e-40
8.81515e-44
3.64702e-47
1.58797e-50
6.94059e-54
3.28316e-57
1.77821e-60
6.53449e-64
2.73317e-67
2.82502e-70
6.23007e-74
3.84844e-77
2.06976e-80
1.54667e-83
3.26651e-86
4.73538e-90
1.17257e-92
2.49217e-96
1.99028e-99
1.20506e-102
9.55531e-107
3.81193e-108
3.74316e-111
3.90183e-115
3.81092e-118
5.31193e-122
1.09186e-125
3.40812e-128
1.59819e-131
1.42874e-134
7.71225e-139
2.24988e-142
3.62844e-143
1.03557
1.02064
1.02007
1.00573
0.984381
1.00215
1.00067
-3.43685e-15
-4.81411e-18
-3.50196e-23
1.89303e-17
2.27912e-18
1.7617e-20
4.57178e-24
2.31859e-28
7.08972e-32
3.05046e-35
1.32752e-38
6.15719e-42
2.38771e-45
1.18929e-48
4.67832e-52
3.65675e-55
9.53013e-59
5.5322e-62
5.16635e-65
3.32138e-68
3.71125e-72
1.284e-73
4.58303e-77
1.59756e-81
3.33732e-85
3.12126e-86
4.23277e-89
3.65465e-93
1.30569e-96
6.82565e-100
6.32167e-104
1.0301e-105
3.5747e-109
1.97849e-112
1.12015e-115
1.47768e-118
1.88798e-122
1.6174e-125
7.47076e-130
2.29999e-131
1.44955e-134
6.21207e-139
6.79407e-143
1.20362
1.01636
1.01229
1.00662
1.06044
0.999344
1.00012
0.0354565
-1.90106e-18
-4.86664e-21
4.14611e-18
9.49903e-19
2.00806e-20
3.53478e-23
4.3627e-27
5.89759e-31
2.2168e-34
1.04383e-37
4.04983e-41
1.71615e-44
7.8506e-48
3.13992e-51
3.34228e-54
1.32362e-57
6.17611e-61
2.86926e-64
5.95589e-68
3.85988e-70
1.21523e-73
1.30087e-77
9.35302e-80
7.12937e-83
1.56639e-86
3.26663e-90
1.21386e-92
2.61148e-96
7.82608e-100
2.04186e-102
1.043e-104
3.81301e-108
7.68185e-112
1.51648e-114
4.98888e-118
4.80385e-121
7.38709e-124
2.85589e-127
1.71243e-131
1.934e-134
1.3833e-137
3.8334e-140
1.00456
1.01077
0.968664
1.01755
1.03737
1.00427
1.00205
0.611004
-4.8455e-17
-2.48174e-20
1.11679e-24
4.64974e-18
2.54777e-19
6.63273e-22
9.10377e-26
1.04129e-29
3.43811e-33
1.47236e-36
6.37298e-40
3.93548e-43
1.15556e-46
9.60701e-50
2.28259e-53
1.42645e-56
4.24287e-60
4.49801e-63
1.51395e-66
2.4122e-69
1.05143e-71
2.55656e-75
2.77084e-78
2.66392e-82
1.44556e-84
2.24522e-88
3.23452e-92
2.16922e-95
2.28232e-97
5.09908e-101
3.32549e-105
4.52121e-107
6.21583e-111
4.75103e-114
1.60078e-116
1.8684e-119
5.59181e-123
1.178e-126
1.19467e-128
5.42249e-132
4.80433e-135
8.2682e-139
1
1.06306
0.999315
1.0021
0.999202
0.995464
1.002
0.750384
-5.15879e-17
-3.49607e-21
3.61264e-25
3.6597e-18
2.01242e-19
5.24031e-22
7.17452e-26
7.68419e-30
2.70769e-33
2.04103e-36
6.21491e-40
4.51576e-43
1.34642e-46
5.77835e-50
2.11391e-53
5.06588e-56
1.47743e-59
8.04378e-62
2.25988e-65
1.93296e-69
1.44005e-71
1.58724e-74
3.34707e-77
3.253e-81
4.06111e-85
4.42176e-88
1.69743e-90
2.46416e-94
6.76565e-98
2.2152e-100
2.29802e-104
1.05104e-106
8.66785e-110
1.13965e-112
6.4137e-116
1.9537e-119
3.57208e-123
7.57437e-126
6.08342e-130
1.23748e-133
6.01199e-137
1.24683e-140
1.05715
1.03865
0.97117
1.04534
0.971166
1
1.00438
0.448622
-1.48392e-18
-5.45617e-21
4.0294e-18
8.92512e-19
1.85743e-20
3.20363e-23
3.88375e-27
5.29456e-31
1.99061e-34
8.56872e-38
3.64651e-41
1.59112e-44
1.26829e-47
3.16944e-51
1.66879e-54
5.50918e-58
5.03051e-61
1.13313e-64
4.14637e-68
7.66182e-71
5.88735e-73
1.3997e-76
9.0097e-81
3.88325e-83
5.03301e-87
3.04126e-90
9.08005e-94
2.30882e-96
7.33726e-100
3.68176e-102
2.09358e-105
2.63465e-108
2.69531e-112
5.1488e-115
1.94571e-118
1.06821e-121
9.89459e-125
1.49571e-128
1.75199e-130
5.10226e-134
2.99437e-138
6.71426e-140
1.04561
1.02779
1.01203
0.95054
0.987004
1.00777
1.00249
0.000729433
-4.04286e-18
-5.46261e-23
1.83976e-17
2.14108e-18
1.69104e-20
4.84865e-24
2.54277e-28
7.54583e-32
3.18246e-35
1.34927e-38
6.31989e-42
3.29235e-45
1.12342e-48
7.48768e-52
3.69759e-55
8.35295e-59
3.22858e-62
1.84723e-64
1.69905e-67
1.32938e-71
2.24661e-75
3.18781e-77
8.14276e-81
1.22356e-83
7.17395e-87
1.5301e-90
1.02088e-93
4.33417e-96
6.52764e-100
4.611e-103
4.75345e-106
2.69437e-109
3.52453e-113
2.10147e-115
1.21834e-118
6.22985e-122
2.89613e-125
1.28887e-129
3.53711e-133
1.37561e-136
5.43666e-140
2.11148e-143
1.04514
1.01357
0.977232
1.07189
0.986973
0.987815
1.00008
-2.35775e-16
-1.45366e-19
1.30696e-16
1.10394e-17
5.77568e-20
4.91035e-23
3.10317e-26
6.00003e-30
1.48552e-33
6.09146e-37
2.67634e-40
1.21829e-43
5.2177e-47
2.14228e-50
9.8717e-54
4.11097e-57
1.83933e-60
3.66779e-63
4.51122e-67
1.45407e-70
6.77718e-74
3.29976e-77
1.19334e-80
3.91141e-82
9.83792e-86
2.09994e-89
1.33126e-93
7.58946e-96
4.89653e-99
2.57876e-102
2.14924e-106
4.42024e-110
9.1476e-112
1.39906e-114
1.78585e-117
5.24831e-121
2.25234e-124
7.77921e-128
3.60087e-131
9.77398e-134
1.5699e-136
2.45073e-139
1.24322e-143
1.03388
1.01281
1.02672
1.01266
0.995101
1.00857
0.871163
-3.91275e-20
-4.51966e-20
8.36078e-20
1.84672e-18
1.81985e-19
9.89508e-22
2.61015e-25
2.01354e-29
6.23888e-33
2.59739e-36
1.11269e-39
4.77882e-43
2.14553e-46
8.73695e-50
3.71231e-53
1.56781e-56
6.58945e-60
3.0737e-63
1.23646e-66
6.44773e-70
2.86292e-73
8.72546e-76
2.36313e-79
7.8452e-83
2.15682e-85
1.03838e-88
8.2004e-92
8.09958e-96
1.2123e-98
2.67966e-101
4.17412e-105
2.55118e-107
6.2233e-111
5.6346e-115
1.93988e-118
3.54363e-120
1.71837e-123
3.7267e-127
7.69256e-130
2.0906e-133
1.93077e-136
2.00111e-140
1.32962e-143
1.04972
1.02526
0.984682
1.00217
0.998636
1.00286
0.576837
1.79844e-12
1.32717e-14
1.54846e-17
6.08132e-18
7.47756e-19
1.44237e-20
2.86616e-23
6.78913e-27
1.74802e-30
1.18327e-33
8.97657e-37
6.58171e-40
4.75846e-43
3.43716e-46
2.47932e-49
1.78345e-52
1.28025e-55
9.16793e-59
6.54789e-62
4.66894e-65
3.32153e-68
2.35612e-71
1.6678e-74
1.17723e-77
8.28847e-81
5.82669e-84
4.08733e-87
2.86205e-90
1.99974e-93
1.39302e-96
9.67482e-100
6.70852e-103
4.6452e-106
3.20913e-109
2.21241e-112
1.52148e-115
1.04385e-118
7.14791e-122
4.88145e-125
3.32591e-128
2.2633e-131
1.53645e-134
6.1558e-138
1.07305
1.01657
1.0155
1.02143
1.01726
1.01703
0.862109
2.09917e-12
8.55781e-15
8.60092e-15
1.06972e-15
9.04156e-18
3.61612e-21
7.97209e-25
3.04762e-28
1.80033e-31
1.28548e-34
9.24501e-38
6.58673e-41
4.63867e-44
3.31128e-47
2.34808e-50
1.74009e-53
1.22611e-56
8.44417e-60
5.96533e-63
4.23933e-66
3.00767e-69
2.09464e-72
1.47153e-75
1.03406e-78
7.23031e-82
5.13193e-85
3.6067e-88
2.45155e-91
1.69939e-94
1.17845e-97
8.15555e-101
5.6192e-104
3.86507e-107
2.65605e-110
1.82058e-113
1.24774e-116
8.52843e-120
5.80149e-123
3.94608e-126
2.70229e-129
1.81724e-132
1.22735e-135
4.91386e-139
1.02522
1.03501
1.00977
1.00909
0.940115
1.00179
1.00094
1.34121e-08
3.79083e-15
3.36816e-16
3.32091e-16
7.31476e-17
1.98233e-18
3.28684e-21
3.825e-25
9.56814e-29
7.07241e-32
5.15251e-35
3.63796e-38
2.55891e-41
1.79883e-44
1.26229e-47
8.83593e-51
6.17462e-54
4.30267e-57
2.99187e-60
2.07732e-63
1.43841e-66
9.93629e-70
6.86232e-73
4.72921e-76
3.25241e-79
2.23386e-82
1.52995e-85
1.04415e-88
7.12041e-92
4.84712e-95
3.29175e-98
2.23193e-101
1.50937e-104
1.01831e-107
6.85916e-111
4.61205e-114
3.09578e-117
2.07526e-120
1.38842e-123
9.26582e-127
6.17077e-130
4.09999e-133
1.61331e-136
1.00772
0.975224
1.02441
0.981712
0.978511
0.97792
1.00018
0.0434142
5.99917e-13
6.9479e-16
8.90743e-18
8.42351e-18
4.93287e-19
3.88011e-21
2.88602e-24
4.20021e-28
1.8649e-31
1.40378e-34
1.03338e-37
7.40613e-41
5.29028e-44
3.77252e-47
2.68208e-50
1.90709e-53
1.34932e-56
9.53219e-60
6.72283e-63
4.73361e-66
3.32836e-69
2.3286e-72
1.62688e-75
1.13457e-78
7.8896e-82
5.47519e-85
3.79467e-88
2.62298e-91
1.8093e-94
1.24567e-97
8.54902e-101
5.8566e-104
4.00607e-107
2.74121e-110
1.86657e-113
1.26909e-116
8.58931e-120
5.80935e-123
3.92094e-126
2.64247e-129
1.77653e-132
7.0647e-136
1.46188
1.05839
1.01317
1.00673
0.999996
1.00034
1.00235
0.611459
1.6645e-11
1.80643e-14
1.0408e-16
8.9131e-17
1.08408e-17
1.5098e-19
1.68781e-22
2.50057e-26
8.25871e-30
6.08275e-33
4.49612e-36
3.21681e-39
2.29028e-42
1.62917e-45
1.15571e-48
8.18625e-52
5.78383e-55
4.07595e-58
2.86788e-61
2.01331e-64
1.40933e-67
9.8457e-71
6.86375e-74
4.77214e-77
3.3133e-80
2.29413e-83
1.58473e-86
1.09313e-89
7.52156e-93
5.16104e-96
3.53536e-99
2.4179e-102
1.65043e-105
1.1246e-108
7.64269e-112
5.18075e-115
3.50625e-118
2.36833e-121
1.5957e-124
1.07341e-127
7.2058e-131
2.8591e-134
0.859262
0.948423
0.999946
0.989584
1
0.987561
1.00218
0.74899
1.59824e-11
1.72591e-14
1.89538e-16
1.75495e-16
2.26528e-17
3.43174e-19
4.19404e-22
6.30516e-26
1.96576e-29
1.44144e-32
1.06557e-35
7.61589e-39
5.4134e-42
3.84606e-45
2.72623e-48
1.92819e-51
1.36036e-54
9.57196e-58
6.72822e-61
4.71815e-64
3.29991e-67
2.30349e-70
1.60302e-73
1.11253e-76
7.71624e-80
5.33997e-83
3.68451e-86
2.53801e-89
1.74426e-92
1.1961e-95
8.19004e-99
5.59507e-102
3.81351e-105
2.59511e-108
1.76185e-111
1.19293e-114
8.0632e-118
5.4373e-121
3.65756e-124
2.45813e-127
1.64966e-130
6.54535e-134
1.10444
0.999993
0.967283
1.01998
0.966195
0.999387
1.00496
0.450859
5.1208e-13
5.97646e-16
6.24905e-18
5.84011e-18
3.40127e-19
2.43016e-21
1.7431e-24
2.67784e-28
1.2074e-31
9.0003e-35
6.5932e-38
4.71996e-41
3.40825e-44
2.43058e-47
1.71192e-50
1.22079e-53
8.66613e-57
6.0757e-60
4.28018e-63
3.01469e-66
2.12237e-69
1.54455e-72
1.042e-75
7.2394e-79
5.04764e-82
3.50774e-85
2.45496e-88
1.68535e-91
1.16184e-94
8.05273e-98
5.54196e-101
3.77441e-104
2.58044e-107
1.76372e-110
1.20191e-113
8.18449e-117
5.54069e-120
3.74889e-123
2.57452e-126
1.7124e-129
1.1529e-132
5.02293e-136
1.0521
1.01862
1.00143
1.00192
0.989092
1.0178
1.00259
0.00260608
1.18706e-14
4.1849e-16
4.07482e-16
8.92081e-17
2.57859e-18
4.89035e-21
6.38563e-25
1.46565e-28
1.06951e-31
7.82092e-35
5.53101e-38
3.89481e-41
2.74129e-44
1.92525e-47
1.34867e-50
9.43231e-54
6.58182e-57
4.58188e-60
3.18332e-63
2.20635e-66
1.52501e-69
1.05392e-72
7.27072e-76
5.00362e-79
3.43612e-82
2.35393e-85
1.60876e-88
1.09803e-91
7.47774e-95
5.08078e-98
3.44856e-101
2.33491e-104
1.57702e-107
1.06325e-110
7.15447e-114
4.80308e-117
3.21984e-120
2.15367e-123
1.43659e-126
9.57006e-130
6.36894e-133
2.50969e-136
1.06018
1.01798
1.02077
1.05061
1.04186
0.956318
1.00028
3.91369e-10
6.72142e-15
7.10757e-15
1.20129e-15
2.10339e-17
2.02858e-20
2.41868e-24
7.72911e-28
5.37785e-31
3.82076e-34
2.61435e-37
1.78821e-40
1.23386e-43
8.60364e-47
6.00888e-50
4.19261e-53
2.89941e-56
2.11783e-59
1.43558e-62
9.68387e-66
6.71239e-69
4.6513e-72
3.17335e-75
2.25531e-78
1.50446e-81
1.04531e-84
6.99043e-88
4.74587e-91
3.24797e-94
2.20203e-97
1.48989e-100
1.00487e-103
6.80334e-107
4.57557e-110
3.08781e-113
2.0848e-116
1.38641e-119
9.31246e-123
6.36986e-126
4.14482e-129
2.73618e-132
1.81621e-135
7.23765e-139
1.04748
1.0316
0.978185
0.998093
1.00172
1.00123
0.870208
8.48069e-13
1.75279e-17
2.17837e-17
4.58203e-18
3.547e-19
4.98389e-21
8.05177e-24
1.86812e-27
5.56576e-31
3.89024e-34
2.96391e-37
2.18379e-40
1.58758e-43
1.15253e-46
8.352e-50
6.03587e-53
4.3546e-56
3.13362e-59
2.24852e-62
1.61056e-65
1.15093e-68
8.20738e-72
5.83698e-75
4.14093e-78
2.9293e-81
2.06702e-84
1.45563e-87
1.02265e-90
7.17417e-94
5.0191e-97
3.50141e-100
2.43746e-103
1.6938e-106
1.17429e-109
8.12454e-113
5.60724e-116
3.86021e-119
2.6525e-122
1.81812e-125
1.24337e-128
8.49288e-132
5.78407e-135
2.32337e-138
1.0477
1.01173
0.99667
0.990638
0.999772
1.00096
0.576852
-2.18565e-17
-3.07779e-19
7.28204e-23
1.06045e-18
7.17417e-20
2.79254e-22
6.46726e-26
6.12454e-30
2.08469e-33
8.25283e-37
3.67174e-40
1.69952e-43
1.13053e-46
3.45836e-50
1.64022e-53
8.58274e-57
2.56519e-60
1.58188e-63
4.67302e-66
9.69103e-70
3.46991e-73
5.90028e-76
1.02847e-79
1.42496e-82
8.1421e-86
1.15184e-88
1.37663e-91
5.21663e-95
3.03012e-98
2.67101e-101
1.69177e-104
1.51271e-108
2.65698e-110
1.13497e-113
9.5895e-118
4.91008e-120
9.37472e-124
3.87755e-127
1.92371e-129
3.94914e-133
3.50088e-136
4.74419e-139
8.4734e-142
1.03538
1.04625
1.02095
1.00911
0.995078
1.01427
0.863317
7.05522e-13
-3.02076e-20
1.49122e-16
9.28022e-18
3.2162e-20
5.50479e-23
4.14185e-26
5.97616e-30
1.39593e-33
5.63689e-37
2.43805e-40
1.0661e-43
4.47828e-47
2.02611e-50
8.50383e-54
4.60908e-57
1.66577e-60
7.62719e-64
2.9982e-67
2.2227e-70
7.09879e-74
2.94551e-76
3.89416e-80
5.98014e-83
5.50146e-86
4.82109e-89
8.85613e-93
5.92154e-96
2.87822e-99
5.43845e-103
1.66572e-106
1.08939e-107
1.38745e-110
1.57484e-114
3.74403e-118
2.15502e-121
9.2766e-124
1.8345e-127
4.271e-131
5.50112e-134
5.6376e-138
1.31938e-141
6.39128e-145
1.03398
1.05167
0.9961
1.0146
0.935908
1.00725
1.00092
7.95557e-09
-4.83383e-18
-3.44941e-23
1.88847e-17
2.27281e-18
1.75962e-20
4.58749e-24
2.33571e-28
7.1644e-32
3.1136e-35
1.41543e-38
6.39628e-42
2.29317e-45
1.28212e-48
4.37325e-52
2.53426e-55
1.73692e-58
8.72486e-62
2.77039e-65
1.49003e-67
9.22934e-72
1.72038e-75
3.03669e-77
5.86811e-81
3.53453e-85
5.39507e-88
3.6472e-90
7.87313e-94
1.00802e-96
5.40135e-100
1.53418e-103
1.25841e-106
5.93882e-109
5.24868e-112
7.76388e-116
3.9608e-119
4.12005e-122
1.53638e-125
8.43589e-130
3.42908e-131
1.76411e-134
2.98651e-138
8.33233e-141
1.00886
1.02684
0.990945
1.00667
0.999993
0.968738
1.00018
0.0426675
-1.83746e-18
-5.24114e-21
4.16788e-18
9.80919e-19
2.08199e-20
3.66789e-23
4.52289e-27
6.10077e-31
2.29595e-34
9.85038e-38
4.16076e-41
1.80753e-44
7.70109e-48
3.1661e-51
1.61516e-54
1.36396e-57
3.88759e-61
2.05979e-64
5.15912e-68
6.78325e-70
3.97383e-73
3.26661e-77
8.03425e-80
7.29458e-83
1.49833e-86
2.60127e-90
5.67455e-93
1.41208e-96
1.29402e-99
2.26344e-102
1.51006e-106
2.90008e-108
9.03049e-112
1.15664e-114
1.32828e-117
6.98107e-121
7.21336e-124
2.81206e-127
1.92928e-130
1.26194e-134
2.90218e-138
1.12895e-141
1.1894
1.0313
0.996131
1
1.00076
1.00145
1.00235
0.611468
-5.17652e-17
-2.883e-20
2.20382e-24
4.81482e-18
2.64917e-19
6.9491e-22
9.60383e-26
1.0372e-29
3.57057e-33
1.52131e-36
7.31869e-40
2.89711e-43
1.15848e-46
5.38923e-50
2.97936e-53
1.12584e-56
1.1209e-59
1.32396e-62
1.66691e-66
4.15411e-70
2.73439e-72
1.5093e-75
1.86944e-78
1.6099e-82
7.50605e-85
2.0418e-88
4.48623e-91
3.05272e-95
2.10527e-97
4.6945e-101
3.9914e-103
9.19658e-107
1.01343e-110
4.98028e-113
2.08697e-116
1.1658e-119
4.63761e-123
7.95669e-127
1.91998e-128
8.87703e-132
3.05072e-135
6.78514e-138
0.843558
1.07626
0.978811
1.04292
0.999249
0.999333
1.00215
0.748853
-5.74814e-17
-3.67565e-21
2.01948e-31
3.74687e-18
2.06217e-19
5.38972e-22
7.38787e-26
7.9994e-30
2.79615e-33
1.22265e-36
5.49103e-40
1.17242e-42
1.80416e-46
1.35969e-49
5.68313e-53
1.38522e-56
5.23503e-60
1.82065e-63
2.87876e-66
4.14848e-70
1.39092e-73
6.18688e-75
1.60963e-77
2.35715e-80
2.76179e-84
1.06319e-87
1.28667e-91
2.77881e-94
6.92012e-98
2.47643e-100
3.9688e-104
7.65618e-107
3.22206e-110
2.91972e-113
4.65588e-116
2.18496e-119
9.8748e-123
5.86881e-127
1.67268e-130
9.18333e-132
5.69647e-135
2.19489e-139
1.49394
1.07854
0.973024
1.02507
0.914012
0.980698
1.00444
0.450642
-1.46134e-18
-5.81985e-21
3.77934e-18
8.66219e-19
1.79265e-20
3.07958e-23
3.74422e-27
5.11485e-31
1.92302e-34
8.57229e-38
3.54248e-41
1.54506e-44
1.36895e-47
3.47224e-51
1.38599e-54
7.53759e-58
4.12005e-61
2.91781e-64
5.63445e-68
2.0604e-71
4.31816e-73
1.80792e-76
9.79412e-81
2.84465e-84
1.04588e-87
2.60911e-90
7.10674e-93
2.19264e-96
3.80048e-100
2.48635e-102
4.09577e-106
1.06562e-109
1.33963e-112
1.44718e-115
1.80963e-118
1.16828e-121
3.61927e-125
2.62144e-129
7.27426e-133
2.86881e-136
2.06846e-139
1.27082e-139
1.07038
1.10285
1.00457
1.0948
1.02125
1.02406
1.00262
0.00235839
-4.15437e-18
-5.3923e-23
1.84615e-17
2.15816e-18
1.71812e-20
4.97535e-24
2.6039e-28
7.71868e-32
3.25194e-35
1.37914e-38
6.7534e-42
2.59498e-45
1.15894e-48
6.2467e-52
5.98788e-55
9.45297e-59
1.5959e-61
1.99974e-65
1.36794e-67
1.79909e-70
8.77762e-75
8.36564e-78
1.25622e-80
1.32514e-84
7.62277e-87
3.12959e-90
7.17149e-94
9.0051e-97
6.96e-100
2.05894e-103
4.55378e-106
2.48304e-108
4.54527e-112
4.83861e-115
2.1718e-118
5.90442e-122
3.19476e-125
1.84075e-129
5.66525e-133
2.21659e-136
8.75833e-140
2.55396e-143
1.08544
1.0623
1.04862
1.0275
1.03954
0.953104
1.00021
1.92605e-10
-1.41265e-19
1.40275e-16
1.21259e-17
6.47412e-20
4.75235e-23
2.70984e-26
5.26828e-30
1.35202e-33
5.56177e-37
2.389e-40
1.07441e-43
4.81759e-47
1.93529e-50
9.45955e-54
3.6143e-57
1.68133e-60
6.80376e-64
9.57251e-67
1.56148e-70
5.6974e-74
2.26405e-77
1.71383e-79
1.62719e-82
2.94002e-86
5.01379e-89
3.49863e-92
9.92922e-96
1.16885e-98
2.6672e-102
2.11997e-105
1.17853e-109
1.22938e-111
1.47102e-115
1.43622e-119
3.27165e-121
4.14882e-124
9.16828e-128
1.76557e-131
3.86624e-134
4.97789e-137
2.75528e-139
3.50866e-143
1.0447
1.04264
1.03007
1.02662
1.00898
0.989687
0.870403
3.19041e-13
-4.63587e-20
8.51456e-20
1.35382e-18
1.32106e-19
6.99898e-22
1.80208e-25
1.41157e-29
4.3927e-33
1.8335e-36
7.92299e-40
3.37953e-43
1.43445e-46
6.18636e-50
2.69062e-53
1.11182e-56
4.78554e-60
2.54343e-63
1.03581e-66
4.34073e-70
1.68359e-73
2.94224e-76
1.75183e-79
2.19881e-83
2.56741e-85
9.9937e-89
8.48666e-93
2.55351e-96
1.66064e-98
1.0648e-101
1.14744e-105
2.58032e-107
1.58769e-110
3.84685e-114
7.2624e-117
3.92565e-120
4.98574e-124
5.45076e-127
8.65319e-130
4.65445e-133
3.23976e-136
2.64542e-140
4.23866e-144
1.00023
1.0247
1.00245
1.00184
1.00026
1.02416
1.0034
1.00157
1.00375
1.00158
1.01617
1.00203
1.00326
1.00199
1.00155
1
1.0022
1.00401
1.0019
0.998629
1.00219
1.00221
1.03845
1.00484
0.973647
1.00239
1.03256
1.00349
1.00401
0.999427
1.00192
0.999194
1.00373
0.978334
1.0012
1.0014
1.01515
1.00592
0.99543
1.00104
1.01324
1.00614
1.00494
1.01281
1.00416
0.997916
1.00724
1.01731
1.00447
1.00484
0.999013
1.00116
1.01601
1.00526
1
1.00103
1.00025
1.00158
1
0.940505
1.00021
1.00008
1
1.00071
1.0243
1.00012
1.00351
1.00059
1.02333
1.00009
1.00045
1.02419
1.00353
1.00184
1.00026
1.02406
1.00257
1.00234
1.00369
1.00231
1.01546
1.00193
1.00293
1.00204
1.00234
1.0029
1.00273
1.00758
1.0019
1.00281
1.00231
1.00278
1.01088
1.00331
0.965076
1.00245
1.00512
1.0036
1.00394
0.977643
1.00144
1.001
1.00367
0.994726
1.00113
1.00123
1.01482
1.00625
0.998963
1.00103
1.00807
1.00631
1.00903
1.01977
1.00479
0.99435
1.00957
1.0244
1.00502
1.00549
1
1.00123
1.02354
1.00542
1.00015
1.00103
1.00035
1.00121
1
0.953346
1.00007
1.00094
1
1.0009
1.01181
1.00029
0.997472
1.00059
1.00905
1.00008
1.00054
1.02427
1.00251
1.0002
1.00022
1.02407
1.00185
1.00208
1.00322
1.00234
1.01495
1.00149
1.00311
1.00186
1.00229
0.995592
1.00262
1.00064
1.00173
0.981555
1.00213
1.00291
1.00383
1.00305
0.975252
1.0023
1.00047
1.00353
1.00389
0.990372
1.00149
1.0036
1.00387
0.985979
1.00179
1.00126
1.00233
1.00635
0.996036
1.00136
1.00453
1.00625
1.00927
1.02608
1.0049
0.989149
1.00853
1.02459
1.00454
1.00544
1
1.00118
1.02447
1.00524
0.996299
1.00111
1.00021
1.00049
0.999745
0.997548
1.00019
0.998803
1
1.00083
1.0072
1.0003
0.996119
1.00039
0.999716
1.00011
1.00237
0.998708
1.0297
1.00312
1.00309
1.00056
1.02628
1.0065
1.00426
1.00827
1.00183
1.00796
1.00671
1.00307
0
0.750795
0
0.577334
5.18004e-09
0.74869
5.18004e-09
1.01802
1.00944
0.941818
1.02252
1.01435
1.01075
0.958297
1.01205
1.01082
1.01459
1.01907
1.01079
1.01654
1.01175
-5.97557e-17
1.00023
-1.65525e-15
0.863358
6.50252e-10
1.00016
7.18816e-08
1
1.00036
0.964972
0.970885
1.00478
0.999884
0.998181
1.00633
1.00194
1.00904
1.00235
1.00209
1.00501
1.00628
-6.88636e-17
1.00132
0.394731
1.00137
7.26095e-06
1.00125
0.401532
0.946159
1.03683
1.1422
1.00148
0.913916
1.04635
1.30165
0.999991
1.00079
0.990824
0.986914
0.999829
0.987436
0.999399
0.685132
1.00156
1
1.00044
0.685517
1.00163
1
1.03553
0.998986
0.810513
1.03238
1.00208
0.985938
0.882281
0.996841
1.001
0.99122
1.00155
1.00094
0.994166
0.996257
1.00008
1.00198
1.00043
1.00252
1.00007
1.00227
1.00091
0.935345
1.01883
0.957296
1.00349
0.908324
1.01115
0.994949
1.00027
0.997908
0.998165
0.994261
0.999412
0.994994
1.00051
1.00054
1.00386
1.00019
1.00246
1.00084
1.00419
1.00023
0.932297
1.00132
1.03048
0.976461
0.951363
1.01225
1.02403
1.00412
1.01267
1
1
1.01201
1.00006
1.0042
1
1.00245
0.700324
1.00495
1
1.00283
0.700164
1.00743
0.980297
0.953145
0.994486
1.00035
1
0.94389
1.01016
1.00436
1.00458
1.01774
1.00505
0.999526
1.01037
0.467556
1.00039
0.00240302
1.00271
0.469608
1.00052
0.00594022
0.887037
0.977838
1.0154
1.00552
0.948685
0.995321
0.999999
0.993344
1
0.991819
0.995174
0.999896
0.965512
0.993923
-1.81708e-20
0.970571
-8.27295e-19
1.00043
1.70976e-07
0.965655
4.69901e-09
0.999634
0.994528
1.03758
1.00513
1
1
1.04524
1.0051
1.00532
1.02384
1.00818
1.00502
1.02349
1.00492
-1.91514e-17
0.618214
-5.78472e-19
0.871721
2.64057e-10
0.619256
1.2919e-08
1.00479
1.01653
1.02745
1.00003
1.00506
1.01758
1.02548
1.00605
1.00251
1.00735
1.00302
1.00621
1.00717
1.00227
1.4328e-08
0.748182
1.4328e-08
0.577436
1.4328e-08
0.751028
1.4328e-08
1.01947
1.01539
0.986109
1.00473
1.01506
1.00875
0.992331
1.00356
1.01133
1.00643
1.01564
1.00522
1.01148
1.00393
1.24335e-09
1.00042
1.15515e-07
0.863135
1.25767e-09
1.00026
1.15969e-07
0.987248
1
1.0215
0.935088
0.974231
0.99976
0.996694
1.00407
1.00171
1.0098
1.0014
1.00502
1.00089
1.01333
9.44237e-06
1.00169
0.401894
1.00141
9.43296e-06
1.00122
0.401523
0.945178
0.99398
1.15798
0.979534
0.882546
1.00208
1.01186
0.999195
1
0.981809
0.967263
1
1
0.984462
0.685544
1.00121
1
1.00044
0.685311
1.00189
1
1.00406
0.986377
0.884308
0.99797
0.999954
1.00833
0.874948
1
1.00122
0.972505
1.00109
0.997124
1.00136
0.973822
1.00034
1.00235
1.00102
1.00277
1.00018
1.00236
1.00072
0.881799
1.01498
0.990294
0.999395
0.935345
1.01095
1.00505
1.00027
0.999082
0.993937
0.991649
0.999818
0.998163
0.99868
1.00115
1.00417
1.00035
1.00252
1.00077
1.00407
1.00025
0.991119
1.03083
1.02156
0.952138
0.981401
1.03656
1.03176
1.00453
1.01164
1.00047
0.989353
1.00484
1.01115
0.99993
1
1.00275
0.700214
1.0049
1
1.00284
0.699892
1.02759
1.00088
0.950741
1.0112
1.03103
1
0.945095
1.00982
1.00923
1.00551
1.01473
1.01001
1.00961
1.00278
0.46938
1.00092
0.0065101
1.00273
0.469713
1.00057
0.00648633
0.935646
0.972725
1.00078
1.03905
0.738219
0.985226
0.995642
0.990017
0.999858
0.964118
0.944884
0.987786
1
0.913688
2.67878e-07
0.965172
9.99223e-09
1.00041
2.68888e-07
0.963971
9.87881e-09
0.99099
0.970397
1.00138
1.00556
0.953213
0.988303
1.01392
1.00181
1.00141
1.02358
1.00029
1.00231
1.00153
1.02303
5.26037e-10
0.618846
2.1261e-08
0.870979
5.24219e-10
0.619144
2.12983e-08
1.00146
1.01588
1.02624
0.9993
0.995271
1.01302
1.02847
1.0027
1.00079
1.00617
1.00039
1.00516
1.00485
1.00071
5.03367e-09
0.751554
5.03367e-09
0.576411
0
0.752142
-3.46945e-21
1.00916
1.02129
0.996785
0.99671
1.01341
1.00001
0.978958
1.00011
1.01149
0.998555
1.01466
1.00028
1.01136
0.997787
6.25607e-10
1.00041
7.30953e-08
0.864482
-5.67319e-17
1.00029
-1.87768e-15
0.965657
0.999999
0.970672
0.961238
0.98935
0.978111
0.936164
1.00108
1.00121
0.999792
1.01391
1.00125
1.00236
0.997111
7.32753e-06
1.00159
0.401298
1.00065
-3.55894e-17
1.00126
0.394591
0.991247
0.998501
0.999726
1.01236
0.989831
1.00782
0.990176
0.99648
0.998706
0.981645
0.981262
0.996099
0.999244
0.98768
0.68547
1.00106
1
1.00034
0.684741
1.00147
1
0.996399
1.01991
0.876024
0.999671
0.997921
0.997517
0.897868
0.999311
1.00185
0.997781
1.001
0.998798
1.00215
0.996239
1.00032
1.00233
1.00115
1.00225
1.00009
1.00185
1.00039
0.935069
0.998146
0.987237
0.987259
0.960788
0.9732
1.0028
1.00139
0.999341
1.00002
0.99852
1.00104
0.999098
1.00129
1.00116
1.00436
1.00025
1.00223
1.00057
1.00385
1.00018
0.927822
1.04382
1.0477
0.90763
0.951751
1.05279
1.02128
1.00232
1.008
0.996382
0.986384
1.00385
1.00898
0.989025
1
1.00274
0.700203
1.00392
1
1.0024
0.70011
1.02445
0.995408
0.942006
1.04072
1.02332
0.987112
0.973386
1.01104
1.0119
1.01594
1.0241
1.01089
1.01269
1.02028
0.469162
1.00081
0.00594156
1.00251
0.467382
1.00035
0.00238946
0.705646
1.0042
0.982297
1.01718
0.652005
0.998809
0.987925
0.994503
1
0.929641
0.964822
0.992348
1.00001
0.927422
1.69576e-07
0.965216
4.4641e-09
1.00008
-1.80805e-20
0.968933
-9.91572e-19
0.953958
1
1.01714
1.02257
0.992304
1
1.00272
1.00051
1.00231
1.01814
0.99178
0.999164
1.00227
1.01058
2.61483e-10
0.618937
1.29057e-08
0.87203
-1.96718e-17
0.618179
-5.70723e-19
1.00244
1.0014
1.00023
1.00034
1.00056
1.0028
1.00163
1.00826
1.0155
1.01406
1.02429
1.01569
1.01403
1.00869
1.00352
1.0007
1.00764
1.00262
1.001
1.00766
1.00364
1.00655
1.00152
1.00235
1.00738
1.00778
1.00621
1.00275
1.00261
1.00062
1.00172
1.00052
1.00089
1.00244
1.00185
1.00811
1.02429
1.01609
1.0141
1.01601
1.01423
1.00781
1.00367
1.00332
1.00098
1.00759
1.00119
1.00762
1.0035
1.00551
1.00611
1.00136
1.00194
1.00645
1.00178
1.00572
1.00865
0.991862
1.00377
1.00389
0.993408
1.00512
1.00934
1.00392
1.00134
1.00386
1.00177
1.00166
1.00406
1.00422
1.01012
1.01741
1.01143
1.00623
1.01135
1.01045
1.00687
1.00556
1.00224
1.00649
1.00245
1.00653
1.00211
1.00531
1.00926
1.0037
0.994215
1.00529
0.991369
1.00523
1.00771
1.0038
1.00224
1.00178
1.00409
1.00208
1.00417
1.00362
1.00065
1.00184
1.00216
1.00176
1.00191
1.00177
1.0007
0.985188
0.954008
1.00099
0.996469
0.965064
1.00075
0.989536
0.999755
1.00154
1.00176
1.00223
1
1.00166
1.00014
1.00602
1.00265
1.00197
1.00846
1.00182
1.00778
1.00519
1.00072
1.00247
1.00186
1.00183
1.00199
1.00202
1.00078
0.993303
1.00357
0.966129
1.00007
0.966515
1.00128
0.992654
1
1.00278
1.00088
1.00142
1.00038
1.00172
1
1.00056
1.00115
1.00095
1.00291
1.00182
1.00213
1.00084
0.994348
1
1.00577
1.03014
0.931409
1.00634
0.997609
1.0005
1.00224
1.00226
1.00363
1.00315
1.00225
1.00045
1.00004
0.984464
1
0.993668
1.00004
0.985161
1
1.00067
1.00288
1.00157
1.00226
1.00255
1.0028
1.0006
0.993559
1.11426
0.85186
1.00415
0.864929
1.00336
0.992175
1.00067
1.00376
1.00313
1.00281
1.00347
1.00259
1.00065
1.0006
1.00331
1.00354
1.00391
1.00311
1.00337
1.00099
0.997332
0.971783
1
0.996239
0.975649
1
0.997415
1.00028
1.00246
1.00062
1.00153
1.00215
1.00037
1.00069
0.998578
0.998947
1.00129
0.981629
1.00117
0.997127
0.992389
1.00098
1.00412
1.00287
1.0031
1.00315
1.00354
1.00088
0.998895
0.992096
0.965598
1
0.966678
1
1
1.00034
1.00162
1.00156
1.00017
1.00225
1.00043
1.00002
1.00163
1
1.0025
1.0012
1
1.00239
1.00182
1.00654
0.996661
1.01536
1.01418
1.00005
1.01527
1.00728
1.00673
1.00502
1.00913
1.00594
1.00494
1.00909
1.00678
1.0007
0.987834
0.99974
0.993102
0.999409
0.996182
1.00002
1.00156
1.00131
1.00001
1.00224
1.00003
1.0025
1.00137
1.00684
1.01435
1.00115
1.01485
1.00051
1.01509
1.00696
1.00735
1.00587
1.00531
1.00895
1.00562
1.00913
1.00705
1.01038
1.01355
1.0099
1.00513
1.01332
1.00995
1.0105
0.99819
0.995268
1.00387
1.01362
0.997774
1.00459
0.99867
1.0042
1.0058
1.00489
1.00419
1.00562
1.00498
1.00436
1.0041
1
1.01132
1.00015
1.01252
1.00008
1.00458
1.01058
1.00475
1.01286
1.00975
1.01223
1.00968
1.01045
0.997877
1.01583
1.00128
1.00573
0.998855
1.0053
0.997501
1.00429
1.00457
1.0058
1.00513
1.00583
1.00508
1.00478
1.00782
1.00863
1.00342
1.00519
1.00844
1.00373
1.00787
1.00591
1.00555
1.00073
1
1.00506
1.00073
1.00606
1.00604
1.00285
1.00256
1.00105
1.00296
1.00243
1.00615
1.01025
1.01333
1.00813
1.00117
1.00684
1.00105
1.01001
1.008
1.00525
1.00865
1.00389
1.00863
1.00387
1.00801
1.00593
1
1.00522
1.00067
1.0052
1.00081
1.00601
1.00606
1.00125
1.003
1.00236
1.00308
1.00248
1.00593
0.999119
1.00013
0.999998
1.00023
1.00009
0.999932
0.999692
0.987826
0.97805
0.994158
1.00224
0.995928
0.994114
0.944703
0.990743
1
0.998989
1
0.998514
0.997761
0.990638
0.992665
0.962965
1
0.917687
0.999425
0.947078
0.995724
0.999524
1.00043
1.00026
0.999734
1.00028
0.999987
0.999232
0.998266
1.00021
0.997008
0.997997
0.995188
0.995478
0.99733
0.994234
1
0.998556
0.996863
0.998616
0.997609
0.985887
1.00212
1.00216
1.00052
1.00067
1.00195
1.00053
1.00225
1.00384
1.02613
1.00255
1.02277
1.02547
1.00361
1.00283
1.00125
1.00015
1.00082
1.00015
1.00026
1.00141
1.00093
1.00391
1.00658
1.00208
1.02363
1.00333
1.02384
1.00285
1.00226
1.00089
1.00189
1.00048
1.00193
1.00094
1.00207
1.00161
1.02524
1.02633
1.00288
1.02688
1.00116
1.00129
1.00131
1.00035
1.00022
1.00082
1.0007
1.00119
1.00095
1.00232
1.00192
1.00069
1.00024
1.0025
1.00036
1.00163
1.0077
1.01634
1.01433
1.02385
1.00784
1.01658
1.01428
1.00337
1.00121
1.00766
1.00288
1.00363
1.00097
1.00756
1.00573
1.00211
1.00096
1.0061
1.00636
1.00582
1.00133
1.00229
1.00047
1.00111
1.00023
1.00056
1.00203
1.00146
1.0078
1.02413
1.01715
1.01442
1.01718
1.01454
1.00791
1.00348
1.00285
1.00089
1.00746
1.00118
1.00761
1.00317
1.00423
1.00671
1.00294
1.00208
1.00496
1.00659
1.00304
1.0054
0.991908
1.00561
1.00299
1.00772
0.994377
1.00537
1.00348
1.00212
1.0041
1.00206
1.00364
1.00181
1.00391
1.00221
1.0151
1.01159
1.0008
1.01142
1.00307
1.00052
1.00384
1.00238
1.00641
1.00312
1.00666
1.00321
1.00367
1.00554
1.00345
0.99969
1.00512
1.00299
1.00536
1.00299
1.00358
1.00234
1.00182
1.00372
1.00211
1.00388
1.0031
1.00057
1.00195
1.00176
1.00187
1.00101
1.00184
1.00146
0.990425
0.971356
1.00044
1.00024
0.991479
0.994999
1.00005
0.998279
1.00069
1.0015
1.00227
0.999829
1
1.00137
1.00396
1.00477
1.00114
1.00587