/*--------------------------------*- C++ -*----------------------------------*\
| =========                 |                                                 |
| \\      /  F ield         | OpenFOAM: The Open Source CFD Toolbox           |
|  \\    /   O peration     | Version:  5.0                                   |
|   \\  /    A nd           | Web:      www.OpenFOAM.org                      |
|    \\/     M anipulation  |                                                 |
\*---------------------------------------------------------------------------*/
FoamFile
{
    version     2.0;
    format      ascii;
    class       surfaceScalarField;
    location    "4.3";
    object      alphaPhi10;
}
// * * * * * * * * * * * * * * * * * * * * * * * * * * * * * * * * * * * * * //

dimensions      [0 3 -1 0 0 0 0];

internalField   nonuniform List<scalar> 
24781
(
-1.01439e-08
1.25377e-08
-4.58608e-08
-3.16274e-08
4.68411e-08
-2.02625e-07
3.55744e-08
-2.06876e-08
1.06442e-07
-2.67537e-09
-5.44689e-09
2.88033e-07
5.93627e-09
4.69104e-08
2.74081e-08
-1.64745e-07
2.42007e-07
-2.26e-08
1.52448e-08
-1.18304e-08
1.29662e-08
-1.1666e-08
-4.0025e-09
-2.01209e-09
2.00974e-08
-1.21777e-10
6.27757e-08
6.28402e-08
6.27908e-08
-1.37785e-22
1.66631e-18
-6.68334e-19
5.66915e-17
3.62316e-16
-3.66246e-16
-5.09725e-17
1.74782e-18
2.00201e-18
1.75637e-18
-4.45731e-24
1.96846e-22
-1.64073e-23
5.59465e-27
6.63633e-26
-2.87443e-27
1.09538e-27
2.87106e-28
-4.56074e-30
1.23766e-29
3.82318e-30
2.31649e-31
3.19987e-33
5.61359e-33
-5.4783e-33
2.39361e-37
1.15229e-36
1.41176e-35
6.88197e-41
2.01682e-40
9.24177e-41
2.75455e-44
6.0016e-44
-2.89979e-42
1.13329e-47
1.34986e-47
-1.26583e-45
4.70878e-51
2.69071e-51
-2.1975e-48
1.95183e-54
4.10983e-55
-2.79459e-51
8.17258e-58
4.82641e-58
-5.56324e-55
3.5319e-61
1.69592e-61
3.45235e-59
1.47202e-64
3.94303e-65
-1.2787e-60
6.10041e-68
-8.13245e-69
-2.10278e-64
2.53369e-71
2.11146e-72
-2.30525e-68
1.62306e-74
4.93619e-76
-2.22936e-72
1.64754e-77
1.38753e-78
-1.54159e-73
3.41132e-81
3.51051e-82
9.26737e-77
2.03031e-84
-1.5697e-87
-5.46023e-80
2.71406e-87
-4.73433e-88
1.5549e-82
6.74549e-91
-8.63555e-92
1.47755e-86
4.33502e-94
2.568e-94
1.42789e-89
1.61511e-97
2.10426e-98
-3.98157e-93
3.6978e-100
2.158e-101
1.26187e-95
7.78624e-103
-4.36523e-103
2.99995e-98
1.67432e-106
4.86017e-107
1.19018e-102
1.237e-109
3.12439e-110
1.41365e-104
1.3836e-112
8.51594e-114
-2.66943e-108
3.4912e-115
5.19114e-116
-2.38679e-111
3.24467e-119
-4.23291e-120
1.98532e-118
1.02016e-122
-1.61774e-123
2.09841e-123
9.94588e-126
3.72642e-127
-5.02484e-122
2.32673e-128
4.43136e-130
-1.43374e-124
2.53658e-131
2.95397e-132
-3.24352e-127
6.70021e-134
1.98608e-134
-1.90969e-130
7.56103e-138
-7.51142e-139
2.11002e-133
5.43301e-141
2.34439e-141
8.39512e-137
1.26363e-144
5.57612e-145
-2.19739e-139
2.20159e-147
-1.9162e-150
-9.77369e-146
2.64449e-149
9.03942e-151
-1.9661e-146
2.73203e-154
3.6135e-154
7.17548e-08
7.88442e-09
-3.18832e-07
7.14862e-09
7.52436e-09
7.91586e-09
1.56582e-08
2.87512e-09
-5.81266e-08
2.3159e-08
-3.53213e-08
2.67664e-08
1.88778e-08
-6.37174e-08
-5.03855e-07
1.65008e-07
2.11898e-08
4.81541e-08
-7.75248e-08
-6.03426e-08
-7.67555e-08
2.07264e-08
4.19772e-08
1.86827e-08
-5.33052e-08
-6.44127e-09
2.03336e-08
-9.40375e-09
2.26235e-09
-8.34176e-09
6.24325e-11
-9.81391e-11
1.79873e-08
-2.87283e-11
1.78986e-08
-2.22106e-18
1.74326e-18
2.76599e-08
2.87414e-18
-2.36947e-18
-2.00464e-18
-2.56859e-18
-1.11905e-24
-1.73743e-22
2.08392e-23
6.8509e-22
1.53653e-21
1.20937e-21
-7.60616e-22
1.42871e-25
4.48778e-26
2.76147e-26
7.98195e-28
5.80898e-27
4.35193e-30
2.12419e-31
4.14029e-30
-4.90739e-31
1.54358e-34
-1.34137e-31
1.64195e-34
6.78281e-38
-5.01954e-36
1.29422e-37
1.44267e-41
-7.86128e-40
-2.40148e-40
5.25575e-45
-2.47756e-43
-3.03126e-43
2.16482e-48
-1.52663e-47
-1.80062e-46
9.08094e-52
6.84904e-51
1.10724e-48
3.80702e-55
1.9321e-53
-9.829e-52
1.58154e-58
-3.04074e-57
8.25173e-56
6.66328e-62
8.32644e-61
-4.81907e-59
2.8547e-65
2.42065e-65
-4.32299e-62
1.29252e-68
3.4377e-67
-3.23834e-65
5.88741e-72
4.28653e-71
-2.99918e-68
2.40629e-75
-8.92885e-75
-9.64161e-72
1.25302e-78
5.37169e-78
1.2608e-75
7.76157e-82
1.12444e-80
-6.02727e-78
2.55032e-85
-9.5816e-85
6.37489e-82
1.32314e-88
-2.15659e-87
-4.71797e-84
7.06696e-92
-1.15753e-89
4.48545e-87
7.83877e-95
4.75884e-96
2.36922e-91
1.05098e-97
1.20996e-98
-1.70368e-93
2.44937e-101
-7.42477e-98
-2.45729e-97
2.5367e-104
-5.28537e-101
1.60369e-98
6.64176e-108
3.22481e-108
-2.13626e-104
5.17371e-111
-1.29819e-109
2.69006e-106
2.27061e-114
-5.49137e-113
-1.44244e-109
5.7209e-117
4.14205e-119
3.0649e-118
8.48709e-119
-3.98629e-119
-3.95841e-116
8.60268e-123
-3.94524e-123
9.34961e-119
1.77007e-126
-2.12341e-125
8.97741e-122
1.05299e-129
-1.30497e-129
-2.41386e-125
2.70856e-133
-1.2291e-131
-9.93753e-130
1.35068e-136
6.93116e-138
3.56395e-137
1.257e-139
8.82463e-140
1.33126e-134
5.05448e-143
-4.62354e-143
-5.46049e-138
2.32746e-146
2.63672e-143
1.96834e-140
4.30465e-150
-5.53452e-148
-8.40962e-145
5.1586e-152
2.3507e-154
5.95782e-151
-2.36063e-156
-9.17693e-151
7.60121e-09
-2.30643e-09
8.3584e-09
-2.84021e-09
-2.12011e-08
2.07935e-07
-2.17235e-08
-2.13648e-08
-2.15121e-08
7.87556e-08
7.90037e-08
7.89634e-08
7.89065e-08
-4.36172e-08
-6.3903e-09
6.8273e-07
-2.71085e-08
-2.00058e-08
-2.73163e-08
-5.9235e-09
-7.69806e-09
-5.32984e-09
-2.73889e-08
-2.06855e-08
2.82352e-09
-6.55273e-08
-1.19359e-07
-1.76422e-08
-1.43672e-08
-1.17171e-07
-1.77317e-09
4.51974e-09
1.0219e-09
5.61457e-09
-6.59246e-09
4.54153e-10
3.55715e-10
8.94163e-10
-1.35721e-10
1.38368e-09
1.52869e-15
-1.1697e-18
-2.96562e-17
-2.87941e-14
4.95037e-15
2.13444e-14
-2.22293e-17
-5.74826e-09
-5.74826e-09
-5.74826e-09
-5.74826e-09
1.80271e-23
-1.86764e-20
4.0037e-22
8.87209e-20
9.21013e-20
1.50711e-19
-1.89339e-20
-9.82184e-26
-4.59328e-25
-4.65532e-27
-9.85762e-27
-1.15545e-27
6.2604e-29
3.63065e-28
1.72742e-29
5.27147e-29
2.01972e-31
-2.11003e-31
8.85332e-31
8.79153e-36
-7.85983e-35
-3.51885e-34
2.19777e-39
-9.95279e-39
-2.07762e-38
8.74358e-43
-2.26445e-42
1.46496e-41
3.57655e-46
-3.49015e-46
-3.6602e-43
1.47074e-49
-3.44435e-49
3.32972e-47
6.05282e-53
7.56793e-54
2.29852e-49
2.48708e-56
-1.68954e-56
-1.8314e-53
1.04047e-59
-7.11384e-60
-5.90273e-56
4.48521e-63
-1.3968e-63
-3.39113e-59
2.02638e-66
8.48705e-68
3.77365e-62
7.79589e-70
-4.18631e-70
1.28189e-65
3.79737e-73
5.80588e-74
7.87489e-71
2.14895e-76
-1.04034e-76
9.94161e-72
9.26761e-80
1.65035e-80
4.36617e-75
2.12882e-82
6.99676e-86
-1.78788e-82
2.95987e-84
5.70445e-86
-1.7302e-80
8.93337e-89
-7.13194e-90
-2.51166e-84
2.13934e-92
-7.87491e-93
2.20456e-93
5.19431e-95
-1.66265e-95
2.38342e-96
1.4074e-96
3.30775e-99
-2.17777e-93
1.21332e-100
9.25999e-102
-3.27728e-96
1.59357e-104
7.99113e-105
3.06703e-100
6.85259e-108
-5.89444e-109
5.44614e-104
2.81616e-111
1.97043e-112
-2.35136e-107
2.33238e-114
-1.64306e-115
2.62382e-111
1.11553e-116
1.22852e-118
-2.73647e-113
9.95931e-121
-6.07837e-121
5.68801e-116
5.73484e-124
1.30577e-124
-3.58432e-119
4.15171e-127
-2.26026e-127
1.54369e-122
3.38752e-130
-1.42197e-130
6.67751e-125
8.31247e-134
3.92959e-134
-5.12337e-129
4.27872e-137
1.9296e-137
-5.09928e-132
3.66214e-140
-7.11769e-141
5.21113e-140
2.40481e-142
1.43729e-143
1.72244e-137
2.59989e-146
5.26445e-147
-4.19619e-142
4.12699e-150
2.52769e-151
2.031e-149
-1.76676e-153
4.9197e-154
1.73779e-08
1.70919e-08
-5.64917e-09
2.27136e-08
2.29107e-09
-2.32706e-08
-3.47011e-09
-1.7176e-08
-7.11005e-09
5.58554e-08
5.75562e-08
5.73741e-08
-2.41472e-08
9.17438e-09
1.7393e-08
-5.72665e-09
9.33513e-09
6.52669e-09
-7.79312e-08
-9.24434e-09
-1.44211e-09
-7.32462e-08
1.86187e-09
-2.21296e-08
5.23995e-09
4.44704e-09
1.01325e-08
-1.26068e-10
4.07302e-10
-2.65423e-10
1.21753e-10
-1.7788e-10
-1.71751e-10
-2.15263e-10
4.25488e-10
3.71798e-10
4.81942e-10
-2.37421e-10
-1.7652e-10
-2.08585e-10
-2.01682e-10
-2.83824e-11
4.81063e-14
2.33562e-08
3.4199e-12
2.3357e-08
-4.51478e-22
-2.22787e-18
1.13487e-21
5.83189e-19
3.28176e-18
1.42505e-19
-7.23484e-19
-2.44107e-25
-2.80468e-22
-2.77728e-24
8.91324e-28
-4.94248e-26
1.57489e-29
1.94925e-28
-9.49371e-28
8.18082e-30
6.00231e-31
-9.88912e-30
-7.05516e-32
1.1868e-34
-8.71806e-33
-8.39014e-34
1.24494e-38
-1.13742e-36
-7.96348e-37
4.08159e-42
-1.93069e-40
-1.75275e-40
1.6646e-45
-7.48593e-44
-9.93483e-44
6.90993e-49
-3.69051e-48
-1.85271e-45
2.81006e-52
-1.31717e-51
-8.38134e-50
1.16269e-55
-2.43082e-54
-1.88511e-52
4.82954e-59
-7.00975e-58
2.14985e-56
2.25066e-62
-2.19737e-61
-6.86352e-59
1.2972e-65
1.54704e-65
-1.108e-61
5.13109e-69
2.63404e-68
2.66879e-66
2.34379e-72
1.53168e-72
2.59537e-68
9.8345e-76
-9.48971e-77
-1.08153e-71
8.52044e-79
1.01958e-79
-4.78923e-75
2.44317e-81
3.1334e-82
-1.35949e-77
2.65983e-85
-9.84761e-84
3.58538e-81
1.99484e-88
1.00577e-89
4.10488e-84
6.97149e-91
5.96748e-92
-2.0633e-87
1.71051e-94
-4.00028e-95
-2.40246e-90
5.11252e-98
-4.12391e-96
-1.65345e-92
3.3282e-101
-3.15042e-101
-1.23078e-96
4.95637e-104
6.0342e-105
1.07453e-99
7.97729e-108
-9.77289e-109
-2.51552e-104
5.46368e-111
-1.56156e-110
3.28826e-106
2.09196e-113
5.27493e-115
2.00954e-110
7.11064e-116
2.28757e-116
-2.00233e-112
8.27174e-120
1.9685e-120
-9.26134e-115
4.40505e-123
-4.52299e-124
2.06601e-119
5.11533e-126
-2.21033e-127
1.05378e-121
1.76039e-129
-4.59628e-129
1.519e-124
2.26587e-132
-7.01753e-132
-2.56913e-127
2.34434e-135
-1.24373e-135
5.2199e-132
5.64318e-139
4.14817e-140
-4.76697e-135
1.60781e-142
5.86303e-143
-1.73595e-138
9.4374e-146
4.62036e-146
-9.00303e-142
9.11934e-149
-1.19293e-147
-9.60641e-145
-1.30054e-150
-1.24378e-147
2.07642e-08
1.50307e-07
-1.1949e-07
7.08386e-08
6.28771e-08
4.15407e-08
4.13272e-08
5.07384e-08
3.95766e-08
-6.72254e-09
-2.22795e-08
-1.4556e-08
-5.10851e-09
2.97092e-08
2.43205e-08
2.31399e-08
-3.98968e-09
2.42507e-08
-7.72076e-09
-9.16534e-09
-6.04141e-09
-9.35468e-09
1.93847e-09
3.20929e-08
2.4876e-08
8.29988e-10
-1.0072e-07
6.47411e-08
5.38079e-08
-3.51834e-08
-1.07977e-08
-1.59368e-08
1.31629e-08
-2.60348e-08
-1.6266e-08
-1.30018e-08
6.32338e-09
4.76288e-08
2.26499e-08
3.48707e-09
-7.27867e-08
-9.58354e-08
7.64163e-10
1.04248e-09
-9.38053e-08
-2.74517e-10
-2.82873e-08
5.50871e-09
-4.57525e-09
2.59415e-08
-2.90004e-09
9.52858e-10
-1.86294e-09
-1.10428e-10
3.04274e-10
-1.4551e-10
9.53431e-10
2.08049e-10
1.02446e-10
2.08083e-10
1.49019e-10
-1.3701e-10
1.42778e-11
3.08918e-08
-4.04862e-12
3.09399e-08
-3.50932e-23
-2.03837e-18
-1.01333e-18
-4.86678e-17
1.09457e-16
-1.84106e-16
1.47699e-16
3.65423e-24
-4.14803e-22
-1.04155e-23
-7.4815e-27
-5.3835e-26
-6.13979e-28
3.28008e-27
-1.05108e-27
2.91973e-29
1.85664e-29
-1.35138e-29
-3.01176e-30
3.03519e-33
-1.3404e-32
-1.77368e-32
2.45462e-37
-1.99372e-36
1.83094e-35
7.7868e-41
-4.0088e-40
-3.55995e-38
3.12086e-44
-1.05181e-43
-1.15386e-41
1.28465e-47
-2.63625e-47
-4.68503e-45
5.48856e-51
-6.10407e-51
5.6943e-48
2.40627e-54
1.28453e-54
-8.61663e-50
9.93004e-58
-1.78065e-58
5.42859e-55
4.62964e-61
-2.13537e-61
5.74421e-57
1.74355e-64
-1.31341e-65
-2.77934e-61
7.64083e-68
-1.46432e-68
-3.70102e-65
3.34226e-71
2.3204e-72
-1.77776e-67
1.82241e-74
-1.47796e-74
-3.90178e-70
9.24242e-78
3.72843e-78
-1.15535e-73
2.08903e-80
-5.72641e-83
2.92021e-76
5.76482e-83
1.89302e-84
-5.00544e-79
1.08286e-86
-8.97921e-86
-3.25207e-81
7.05374e-90
4.52364e-91
-5.27144e-86
3.56892e-93
3.38086e-94
1.91206e-89
8.53211e-96
-8.17368e-97
-5.38131e-91
7.90536e-100
-2.98051e-100
2.05781e-96
2.82698e-103
-5.74486e-103
3.07346e-98
4.38567e-106
-9.43522e-107
-1.80247e-101
1.72039e-108
2.27455e-109
-1.49587e-104
1.22678e-112
8.11357e-113
-7.47048e-108
9.38113e-116
-3.1312e-116
1.73639e-116
3.35473e-118
3.16035e-119
5.21539e-114
2.48169e-122
-3.96596e-122
9.21487e-119
3.43505e-125
-9.41829e-125
5.89084e-121
9.09454e-128
-3.31876e-130
-4.23424e-123
5.32679e-131
-2.04054e-131
-4.09827e-126
1.3078e-134
-1.44243e-135
5.70438e-130
2.04155e-137
-2.90587e-138
6.24317e-134
1.11802e-139
1.04725e-140
-2.97608e-136
1.60389e-143
1.06144e-143
-1.96311e-139
1.14185e-146
3.47832e-147
-9.94784e-143
3.53872e-151
-1.899e-145
-2.86462e-09
7.73208e-08
1.09581e-07
-3.0292e-07
3.86273e-08
2.11325e-09
-2.36271e-09
2.30391e-09
-9.31827e-09
5.17751e-09
6.35976e-09
-4.86651e-09
7.29e-09
6.85601e-09
1.26311e-08
4.74431e-09
2.09261e-09
2.07997e-08
-8.98942e-10
-8.49662e-09
7.35616e-09
4.72033e-09
-7.04872e-08
-3.35908e-09
-6.10116e-08
-6.70145e-08
-7.34303e-08
-7.29889e-08
-5.01938e-08
-6.28539e-08
8.59023e-09
-4.05703e-09
-2.46259e-08
-3.24029e-08
-3.36108e-08
9.19648e-08
4.87131e-08
2.48144e-08
-1.10868e-08
5.74772e-09
1.41113e-09
7.36991e-09
6.75842e-10
3.11256e-08
-7.83875e-10
-1.81292e-09
-2.86648e-08
-1.02175e-09
1.67411e-09
-1.91252e-09
4.12948e-11
-2.40252e-10
-1.26418e-09
6.56038e-10
1.94647e-10
1.41007e-10
2.03611e-10
2.06967e-10
-2.35173e-10
1.82186e-11
6.27618e-08
1.76066e-14
6.28951e-08
3.88485e-22
3.97362e-19
-1.90111e-18
-7.17316e-17
3.26565e-17
-4.65444e-17
1.07959e-16
5.69014e-24
-4.51034e-23
-2.06539e-23
-1.76239e-28
-6.61086e-27
-1.85963e-27
2.4109e-27
-5.06619e-28
-2.62649e-29
1.44357e-29
-6.06889e-30
-1.30152e-29
2.41515e-33
-5.19538e-33
2.17287e-32
1.95618e-37
-7.84463e-37
2.31829e-34
6.19427e-41
-1.73044e-40
-2.91894e-38
2.63075e-44
-4.34227e-44
-3.62476e-42
1.20232e-47
1.6025e-48
-1.98649e-43
4.92306e-51
-2.67271e-51
1.25456e-47
2.31675e-54
-3.96979e-55
-8.45966e-50
9.07492e-58
4.21571e-58
-6.89784e-53
3.73202e-61
-2.1954e-63
8.25067e-57
2.10929e-64
9.42139e-66
-1.87886e-60
2.01419e-67
2.59866e-68
-5.23039e-63
1.54832e-70
2.01981e-72
-1.30297e-66
4.73886e-73
3.91793e-74
-1.67105e-69
4.89316e-77
6.84439e-78
-1.10373e-72
3.29635e-80
-9.7673e-83
-6.5808e-76
1.11542e-82
4.69853e-84
-5.18464e-79
8.81895e-86
5.2441e-87
-5.05112e-81
1.20831e-88
5.96124e-89
-8.88796e-85
1.17517e-92
-6.16731e-95
2.45568e-89
4.59021e-96
1.11859e-97
-2.69467e-92
4.68194e-99
3.17479e-100
-6.65716e-94
7.17426e-102
7.52927e-103
-4.52144e-98
9.51622e-106
2.15652e-107
-4.30973e-101
6.36985e-109
-1.48722e-109
-1.55521e-104
8.164e-112
1.82572e-112
9.78733e-108
2.45112e-115
-4.05411e-117
5.82642e-112
5.62142e-118
-2.74998e-119
3.98433e-114
3.37041e-121
2.86583e-122
-2.33616e-116
3.53629e-124
-7.98023e-125
9.58775e-120
1.42913e-127
1.12693e-128
-2.87934e-123
4.7353e-131
2.08159e-132
1.8491e-126
2.441e-134
2.65654e-136
8.93882e-130
2.30521e-137
-1.33017e-140
-9.52534e-134
3.60007e-141
1.36866e-142
1.12351e-141
1.35431e-144
7.20262e-147
1.46883e-141
5.48874e-148
2.06691e-149
-9.06311e-143
2.26634e-152
2.09554e-151
1.44005e-08
-4.97351e-09
4.14968e-09
3.91169e-07
-9.41296e-08
-9.36978e-08
-2.13631e-07
9.31275e-09
1.41153e-08
1.93029e-08
4.51898e-08
-1.23442e-08
9.69146e-08
1.39563e-07
4.5679e-08
4.41812e-08
5.16824e-08
1.15375e-07
1.79631e-08
2.56179e-08
5.53257e-08
4.17053e-08
3.42587e-08
-4.86331e-08
-7.75763e-08
-4.28902e-08
-1.46203e-08
-3.39523e-08
-3.64659e-08
-3.48909e-08
-3.01409e-08
4.44825e-08
1.59438e-08
3.46358e-08
-9.51349e-08
-5.93718e-09
1.65326e-09
7.52767e-09
-1.15219e-09
-5.88178e-09
-4.38006e-09
-1.1121e-09
-3.8248e-10
1.24788e-09
-1.19841e-09
1.66357e-09
-2.64238e-10
-5.52692e-10
9.60483e-11
3.50952e-10
2.16014e-10
1.90096e-10
-1.21757e-10
-5.4923e-12
2.217e-08
4.25552e-11
2.21684e-08
-2.35737e-22
1.05356e-20
-8.30598e-20
1.13117e-17
3.19586e-19
-9.0775e-18
-1.05558e-18
-2.87437e-25
6.38008e-25
-3.78128e-24
3.05387e-27
-9.95269e-28
-7.79567e-30
1.58412e-28
-7.24453e-29
-2.18786e-30
5.69382e-31
-1.44326e-31
-4.96292e-32
1.0924e-34
-1.63671e-35
-2.20357e-34
1.17549e-38
-2.17748e-39
-2.96674e-37
3.93078e-42
-1.49453e-42
-9.18376e-42
1.60066e-45
-3.87828e-46
-4.53535e-44
6.60627e-49
-7.9364e-50
-5.51361e-46
2.72952e-52
-7.31317e-53
8.62701e-50
1.20947e-55
-2.68237e-56
-2.2774e-52
5.68539e-59
-9.32387e-61
3.61188e-56
2.1156e-62
-5.78587e-64
-3.90794e-59
8.97711e-66
4.40768e-68
1.95031e-62
3.93211e-69
-1.11337e-71
2.11268e-66
1.96047e-72
4.0355e-74
-7.94465e-69
6.69703e-76
-2.73456e-77
-2.34929e-73
3.51552e-79
-9.23424e-80
-7.8584e-76
1.05815e-81
-5.15848e-83
-2.93748e-78
4.89946e-84
1.61529e-85
-1.96879e-80
3.018e-88
5.2393e-89
-3.96018e-84
1.30982e-91
-1.23513e-92
2.36443e-89
1.89045e-94
-4.18708e-96
-6.52775e-91
2.6439e-98
-1.92334e-99
8.75298e-100
1.14934e-101
2.17577e-102
1.93321e-96
6.99711e-105
-2.75034e-106
-3.09514e-100
7.11119e-108
1.90251e-108
1.13717e-102
6.74668e-111
1.58242e-112
4.01521e-106
2.40396e-113
2.11665e-116
-7.74956e-109
7.48828e-117
1.22595e-118
-8.32694e-113
7.00899e-120
-5.17451e-121
-2.71841e-115
1.73149e-123
1.00617e-126
-3.54564e-119
1.77782e-126
5.60443e-128
-5.05552e-123
5.70062e-130
5.0529e-132
9.36726e-126
3.82151e-133
2.1234e-134
2.0495e-128
2.69777e-136
-4.18451e-137
-5.51658e-131
3.01181e-139
1.90571e-141
-1.03385e-135
1.71258e-141
1.98459e-147
-3.06804e-138
1.00011e-145
-2.72172e-147
1.6724e-146
1.16327e-148
-1.35604e-151
4.26186e-150
5.2927e-152
-1.84208e-147
7.53106e-08
2.88617e-08
-1.88447e-07
6.99912e-08
7.62455e-08
7.3692e-08
3.85509e-09
6.34494e-09
6.2072e-09
4.78913e-09
-9.03447e-09
6.86174e-08
1.05547e-07
-4.16122e-08
3.97619e-08
-6.06582e-08
3.17204e-08
3.16475e-08
2.88205e-08
2.8285e-08
1.06229e-07
8.63182e-08
8.61831e-08
8.63558e-08
8.60347e-08
-4.31047e-08
4.43428e-08
-6.80123e-09
-5.21065e-08
-8.43384e-09
-3.75599e-08
1.59196e-08
1.70827e-09
7.13935e-10
-4.02207e-08
4.75596e-09
1.64234e-08
-2.19654e-10
-2.98342e-09
-2.02415e-08
9.51511e-10
-5.15405e-10
1.35568e-09
4.05353e-11
9.73627e-10
-2.90903e-12
-7.80261e-14
-1.26131e-08
1.89616e-13
-1.26132e-08
-4.34011e-23
1.03817e-22
2.5244e-23
8.57572e-21
1.05577e-20
-5.23413e-20
5.2953e-20
2.40087e-26
1.69895e-27
-7.30078e-27
4.12447e-26
1.17498e-27
2.06673e-29
3.52162e-28
4.4531e-29
-3.11186e-29
2.05999e-31
2.87037e-31
-4.62658e-31
9.45265e-36
1.27958e-35
-5.64577e-34
2.39119e-39
1.25079e-39
-6.30488e-37
9.55922e-43
5.67108e-43
-7.85084e-41
3.91767e-46
-2.50729e-47
5.13046e-43
1.61348e-49
1.72136e-50
1.69864e-46
6.77055e-53
9.2797e-54
2.10744e-50
2.83148e-56
2.98592e-57
-1.11504e-52
1.17481e-59
-5.34992e-61
1.59548e-56
5.32155e-63
9.90651e-66
3.03353e-59
2.17296e-66
1.52837e-67
-1.80578e-62
8.26704e-70
1.35034e-73
1.05818e-66
5.7077e-73
-1.87645e-75
-7.60295e-72
1.21685e-75
8.59906e-77
-8.48281e-72
3.98521e-79
-1.58446e-80
-6.51332e-75
7.86941e-83
7.57652e-84
-5.27964e-78
7.27599e-86
-7.42386e-89
4.5819e-86
2.8659e-88
-5.71607e-91
-3.61212e-84
3.60473e-92
-1.44768e-93
1.19092e-87
4.1203e-95
6.05101e-97
-2.75176e-91
1.49745e-98
1.4774e-99
3.97894e-94
5.22825e-102
-2.95697e-103
1.76671e-96
8.08302e-105
-4.80877e-107
-2.41968e-100
1.84548e-107
-2.21606e-108
8.83145e-103
2.34756e-111
-3.08731e-112
8.97832e-107
1.91732e-114
1.28888e-115
-5.05082e-109
1.47347e-117
1.62406e-119
-5.6717e-114
6.51081e-121
-1.28526e-123
-1.59845e-115
4.40892e-124
-9.54019e-126
7.65749e-120
1.09985e-126
6.51332e-129
6.51069e-122
2.95422e-130
1.29151e-131
-5.3704e-126
1.70122e-133
-8.61598e-136
-4.89664e-129
7.42261e-137
2.9787e-138
-3.09617e-131
2.01019e-140
1.93999e-141
-1.0761e-138
7.67313e-144
-5.92906e-146
2.69857e-144
2.97434e-147
-2.88726e-148
4.82802e-148
1.16082e-150
-3.57031e-151
5.07614e-151
6.46032e-156
-3.14256e-149
-3.94493e-08
2.95082e-08
1.78811e-07
8.86576e-08
2.43211e-08
7.70127e-08
8.88161e-08
8.87662e-08
8.82691e-08
8.81665e-08
7.6446e-08
8.43419e-08
3.7022e-08
4.03184e-08
3.8308e-08
4.3819e-08
-4.67978e-10
8.74332e-08
1.01059e-07
-9.84595e-10
-6.39231e-10
-6.30135e-10
-5.61631e-09
-1.28552e-08
9.5246e-10
-1.8222e-10
1.15493e-09
-4.29118e-08
3.24096e-08
2.32708e-08
1.06292e-08
7.58255e-09
4.97698e-09
-2.53048e-09
-1.27799e-08
8.05276e-09
-9.939e-09
6.93386e-08
1.82766e-08
-9.27184e-09
-4.55534e-09
2.6747e-09
-5.90378e-09
1.43073e-08
-5.78126e-09
-4.17141e-09
6.88562e-10
-3.03985e-10
7.08585e-10
-2.52723e-08
2.53571e-10
-2.47634e-08
-5.83417e-17
-8.96362e-17
3.22594e-08
3.22594e-08
-3.06317e-20
1.51205e-16
9.4891e-16
5.95248e-17
2.80821e-24
4.52929e-23
1.23923e-23
-5.75311e-22
-1.10986e-22
7.06149e-22
9.14545e-22
5.21256e-26
8.49004e-27
-3.88213e-26
1.22106e-27
-2.8818e-28
-9.62279e-31
5.70764e-31
6.51069e-30
-8.29043e-30
1.51003e-34
2.00933e-32
-7.96002e-34
6.64748e-38
4.4739e-36
3.01758e-37
1.83675e-41
6.47103e-40
-6.6947e-39
6.90808e-45
2.28551e-43
2.42864e-42
2.90545e-48
5.54065e-47
4.23117e-45
1.24195e-51
8.38372e-51
4.63221e-49
5.32765e-55
2.3373e-54
1.48972e-51
2.24585e-58
2.18158e-58
-1.30004e-54
9.46173e-62
1.31098e-61
8.37175e-59
4.05191e-65
-1.38861e-65
1.98227e-61
1.71786e-68
-1.25821e-69
-6.54685e-65
1.13752e-71
1.21159e-72
-3.7947e-68
1.17524e-74
2.68228e-75
-1.05735e-70
1.96704e-78
1.29413e-78
-1.86521e-76
8.00865e-82
-2.25188e-82
-4.46458e-78
3.5968e-85
8.27319e-86
-3.44138e-80
1.55377e-88
-4.97831e-88
-1.02082e-83
6.07237e-91
-3.39393e-91
-7.1786e-89
9.17046e-93
3.18071e-95
-2.83257e-89
2.25975e-97
-6.98904e-98
1.06556e-93
7.24456e-101
-9.98873e-101
1.72634e-96
3.26984e-104
-1.98614e-104
-1.01964e-103
4.54282e-107
-3.94341e-109
-6.12971e-103
1.48757e-110
-2.35248e-112
-1.54475e-105
5.5394e-114
-2.96014e-113
1.00485e-108
1.56533e-117
-3.92829e-118
1.30748e-112
1.82468e-120
-7.74327e-121
3.60859e-121
8.65932e-123
3.74585e-124
-6.83636e-120
6.09308e-126
-9.91786e-128
-1.482e-121
5.07721e-129
7.1399e-130
-7.42405e-125
1.36307e-132
-3.19145e-132
1.58482e-127
6.7092e-136
-5.17236e-136
-1.35929e-130
2.90181e-139
8.23785e-140
-2.47856e-134
2.43089e-142
-1.11523e-142
-3.16398e-138
5.27364e-145
-5.36794e-146
5.88909e-141
7.69627e-148
-1.61667e-148
-4.79661e-144
7.13712e-151
-5.61298e-152
-5.67937e-147
-2.19838e-155
4.33679e-155
5.06088e-08
-7.214e-08
4.36349e-08
1.56588e-07
-2.59417e-09
1.81465e-07
1.19521e-07
1.41141e-07
1.98781e-07
5.3123e-09
6.4769e-09
4.90398e-09
6.2631e-09
-5.88818e-08
5.683e-07
-5.08973e-08
-4.64454e-08
-9.91642e-09
7.75335e-08
-4.62016e-08
2.06643e-07
2.25595e-08
1.33008e-07
-6.39504e-08
1.87674e-08
-7.26535e-09
1.12961e-08
-6.7122e-09
-1.29813e-07
-1.46278e-09
-1.54753e-08
7.89752e-09
7.13481e-09
4.46131e-10
-1.95588e-10
4.2819e-11
1.79981e-08
-8.67701e-11
1.8087e-08
2.28242e-16
-2.60789e-18
-8.6122e-09
-8.6122e-09
-2.81895e-18
2.28205e-16
2.2814e-16
2.28268e-16
-2.75483e-24
6.88198e-23
5.19325e-22
4.67071e-22
4.54113e-22
7.5812e-22
7.32485e-27
-1.13762e-26
4.92901e-28
-7.19675e-30
2.20505e-29
-1.16841e-31
8.45904e-33
3.73726e-34
5.20255e-37
9.66192e-36
1.4063e-40
-5.91222e-40
5.60903e-44
9.95035e-44
2.30574e-47
-6.69502e-47
9.50482e-51
-3.42895e-49
3.93656e-54
4.41359e-52
1.62835e-57
-1.47624e-54
6.67249e-61
1.07697e-58
2.74864e-64
-2.49457e-61
1.13043e-67
-1.4082e-64
4.68818e-71
-1.82151e-69
1.95851e-74
-8.69994e-72
8.1828e-78
-2.67055e-74
3.53957e-81
3.94477e-77
2.52328e-84
-1.23414e-80
3.61318e-87
-1.72355e-83
6.82606e-91
-4.27564e-88
5.32329e-94
1.43071e-91
9.02863e-97
-2.91315e-93
3.0362e-100
-2.73733e-97
1.8393e-103
-2.38606e-99
5.08871e-107
-2.45003e-103
6.45927e-110
6.87375e-105
8.79736e-113
4.02858e-108
4.5029e-116
7.46407e-112
1.72808e-118
-4.72608e-115
1.32279e-122
-3.56038e-119
3.72998e-126
6.91986e-122
6.37562e-129
-1.09156e-124
4.47603e-131
-5.21693e-127
3.60292e-135
-2.04763e-130
2.03725e-138
1.36048e-133
2.6777e-141
-2.82808e-137
7.45447e-145
-2.85435e-140
4.55906e-148
-1.40341e-144
1.12009e-151
2.45972e-149
3.72251e-150
-8.20544e-09
2.30855e-09
-2.36142e-08
2.31483e-09
1.81105e-08
1.77058e-07
-2.05329e-08
-1.88037e-08
2.75846e-07
-2.1663e-08
4.01596e-08
5.22227e-09
3.251e-08
1.64296e-07
-2.94333e-08
-5.41929e-07
-2.82506e-08
1.94988e-08
-2.77429e-07
1.86985e-08
-7.43814e-08
-1.58664e-10
-6.69557e-09
-3.82481e-10
8.18119e-08
-3.98775e-10
4.86612e-11
-2.89166e-11
4.83069e-08
4.82336e-08
-3.41506e-20
4.7047e-18
7.00857e-19
-4.72249e-16
4.85976e-16
-4.75326e-16
4.75717e-16
5.17041e-18
4.74616e-18
5.16812e-18
-1.14413e-23
8.72344e-22
1.2211e-23
1.3426e-26
4.09979e-24
5.13895e-28
4.38582e-27
8.4332e-26
-2.85498e-30
2.04009e-28
1.06933e-28
-7.90799e-32
7.04082e-31
2.93266e-31
1.7441e-33
2.01317e-34
2.42284e-34
-4.25877e-35
4.06844e-38
6.57636e-38
-1.00346e-39
2.48405e-41
6.51305e-42
-3.75133e-42
1.84617e-44
8.75837e-45
2.63107e-46
1.33185e-47
2.7164e-48
-7.5882e-49
9.44152e-51
2.359e-52
2.13301e-51
6.69864e-54
2.69325e-54
1.2455e-54
4.75825e-57
1.73905e-57
-8.34401e-58
3.37746e-60
-8.81213e-61
-6.36564e-61
2.39804e-63
-1.40298e-63
2.62502e-64
1.70167e-66
5.70912e-68
-2.30363e-68
1.20639e-69
1.94472e-70
9.12766e-71
8.55299e-73
-8.13488e-75
-1.37247e-73
6.0566e-76
1.68993e-76
-1.54639e-76
4.28354e-79
5.00335e-81
7.91116e-81
3.02433e-82
1.49129e-83
-4.06667e-83
2.13248e-85
-4.51347e-89
-1.40848e-86
1.50046e-88
1.01407e-88
-1.09618e-89
1.0544e-91
5.8635e-92
3.8225e-95
7.40628e-95
-2.36937e-95
-7.09072e-95
5.19498e-98
3.6783e-98
4.33697e-99
3.63664e-101
7.40718e-102
-3.16525e-102
2.5372e-104
7.86813e-106
-1.18677e-104
1.76543e-107
2.37682e-108
2.0092e-109
1.22681e-110
-2.85931e-112
9.51044e-112
8.51424e-114
1.82377e-114
-5.45495e-120
5.89605e-117
-6.07531e-119
6.13124e-118
4.07455e-120
3.23614e-121
-1.07686e-122
2.80888e-123
1.49492e-124
7.50032e-125
1.93277e-126
-4.65234e-127
3.57761e-128
1.32628e-129
5.43642e-130
4.01507e-132
9.08238e-133
-1.54911e-134
-4.98863e-134
6.20486e-136
-1.99507e-137
3.51563e-136
4.23176e-139
-2.85225e-141
1.34638e-139
2.87964e-142
-1.67171e-144
2.7073e-143
1.85683e-145
-1.0799e-148
1.07697e-146
2.05212e-149
1.57631e-149
4.79327e-10
1.16986e-08
7.40847e-09
2.71176e-08
2.40941e-08
2.57555e-07
-9.05947e-09
5.1161e-09
-2.71723e-07
2.61069e-08
-2.7255e-08
-2.78519e-08
5.74629e-08
-1.12773e-08
-1.69599e-08
9.62499e-09
-1.32276e-08
-2.0928e-09
-7.01338e-09
-3.24861e-08
-2.75029e-08
-2.88161e-08
1.63425e-07
5.97092e-10
7.92492e-09
-1.95858e-09
-1.60871e-07
6.8894e-08
1.97904e-09
4.65558e-08
-3.11384e-09
8.04443e-09
-1.21608e-07
3.23705e-10
2.1277e-10
-1.78492e-10
1.3884e-10
-1.68385e-10
-7.4331e-11
1.65646e-17
4.93853e-18
8.18686e-19
5.48332e-18
8.25228e-19
1.57305e-17
1.20111e-17
4.4872e-18
-2.01793e-23
-7.01659e-22
-1.62235e-23
-2.90823e-20
-9.78169e-21
-2.95277e-20
-9.40806e-21
7.10884e-24
1.25656e-24
-3.5176e-26
2.99033e-25
1.77887e-25
-9.12685e-30
1.97057e-28
1.51944e-27
-1.98583e-30
1.64158e-32
-2.70551e-29
-1.63077e-33
8.17427e-36
-2.53807e-32
-2.90099e-37
5.54689e-39
-2.37285e-36
-7.07737e-41
3.87178e-42
-1.31047e-39
3.38614e-43
2.73199e-45
-3.64704e-43
-1.52045e-46
1.91069e-48
3.68384e-46
-1.40687e-48
1.33119e-51
2.12135e-49
-2.20498e-52
9.27658e-55
-6.90269e-53
3.3418e-56
6.47823e-58
-1.05839e-56
1.75354e-59
4.53038e-61
-6.53734e-60
1.94197e-62
3.1911e-64
-4.65038e-62
-5.52533e-65
2.214e-67
-2.14451e-65
4.39405e-69
1.53489e-70
-4.16828e-69
1.3793e-71
1.07163e-73
5.13062e-73
-8.32523e-77
7.47622e-77
3.96231e-75
-2.03568e-78
5.20409e-80
-1.45866e-78
-2.40276e-82
3.6029e-83
-2.26018e-82
3.31879e-83
2.50059e-86
6.03139e-86
1.58181e-87
1.7352e-89
1.28965e-90
2.19259e-90
1.20478e-92
1.48116e-93
1.75451e-93
8.38659e-96
-8.16686e-94
5.67458e-97
5.79013e-99
-2.06212e-97
-5.6412e-99
3.97096e-102
1.17597e-102
1.63827e-103
2.73892e-105
2.64695e-104
4.26237e-107
1.88425e-108
-4.47069e-107
9.48217e-110
1.29405e-111
2.44379e-111
1.83065e-113
8.86006e-115
-3.94432e-113
2.16787e-115
6.05251e-118
7.75363e-119
-2.12364e-123
4.13255e-121
-6.67318e-121
2.23722e-122
2.81611e-124
7.54515e-124
2.41601e-125
1.91661e-127
6.35768e-126
6.45301e-128
1.30326e-130
-4.77352e-130
2.5264e-131
8.83376e-134
1.0062e-132
-2.7229e-134
5.98338e-137
-5.65956e-136
1.17747e-137
4.04824e-140
-2.83038e-138
8.51177e-141
2.72173e-143
3.75662e-142
1.85217e-147
1.75497e-146
9.78906e-148
1.27089e-148
2.18365e-148
-2.95491e-156
7.23898e-09
3.13765e-09
-6.90709e-08
8.5999e-09
1.60275e-09
7.00254e-09
-7.40512e-08
-6.49495e-08
-7.23234e-08
-2.06649e-07
-2.07774e-07
-2.22205e-07
-1.99999e-07
4.23079e-08
1.2456e-10
2.54616e-07
-1.41881e-09
-6.90255e-10
-1.30324e-09
-4.80008e-08
-5.5247e-08
-1.35869e-07
-2.19839e-09
1.15347e-08
1.64866e-08
-5.18439e-08
-4.62552e-08
-5.23175e-08
-3.80781e-07
-3.14756e-07
-3.07367e-07
3.64862e-08
-2.44624e-07
-2.15052e-08
7.42367e-09
2.85826e-07
-1.49147e-08
1.5095e-08
-1.88178e-08
-4.02097e-07
2.5776e-09
-3.66333e-09
3.77097e-09
1.61586e-09
1.18467e-07
1.36708e-09
-4.67096e-09
2.23051e-09
2.34991e-09
-1.2091e-07
6.98952e-10
-1.63055e-10
3.79999e-10
-6.5171e-10
1.71518e-10
-2.0318e-10
8.39403e-15
-1.64898e-17
-3.68849e-17
-1.17947e-17
-1.28562e-14
1.0405e-14
-7.72111e-16
-3.22852e-16
1.73747e-15
1.77097e-15
-1.62059e-16
-1.64662e-16
-7.79442e-22
-7.32213e-20
-2.80551e-22
1.42561e-19
-2.02993e-19
1.38011e-19
-1.89775e-19
-3.37046e-25
-5.38403e-24
1.06617e-26
2.82038e-25
-3.09191e-27
-3.64004e-29
3.68046e-26
2.42735e-27
-3.51463e-29
1.30291e-28
8.41872e-30
-1.23583e-30
2.02026e-32
-4.56321e-32
-3.90106e-34
3.56079e-36
-9.48402e-36
2.96286e-38
2.4123e-39
-3.22494e-39
-8.08842e-42
1.74367e-42
-1.06643e-42
-9.54789e-44
1.21038e-45
-5.02805e-46
-2.1936e-46
8.36793e-49
1.86522e-50
-3.38495e-51
5.79444e-52
-2.18047e-52
-6.83238e-54
4.01145e-55
-1.23017e-55
-5.12366e-56
2.77559e-58
-7.46594e-59
1.9549e-59
1.91677e-61
1.41003e-61
-9.39429e-63
1.32211e-64
-2.86412e-65
-5.70953e-65
9.11578e-68
2.66468e-68
-1.86325e-68
6.28612e-71
-3.9654e-72
-6.79728e-72
4.32775e-74
8.95883e-75
1.25665e-75
2.9722e-77
2.16117e-77
-7.89495e-80
2.04447e-80
-1.6928e-81
-2.87537e-82
1.40474e-83
-2.5976e-84
-1.52337e-84
9.63198e-87
1.8876e-87
-4.2678e-93
6.60416e-90
-2.29724e-91
-1.03299e-96
4.51334e-93
3.29917e-94
2.32075e-94
3.07503e-96
-7.88172e-98
-2.00461e-97
2.0944e-99
4.36335e-100
1.3072e-100
1.42419e-102
-3.33705e-104
-1.44824e-103
9.66389e-106
3.8592e-107
2.94897e-107
6.55007e-109
-3.26392e-110
7.54232e-111
4.42968e-112
-9.74829e-115
5.77432e-114
2.98587e-115
4.45907e-115
7.24558e-116
2.00999e-118
2.30957e-119
-3.42458e-120
1.35079e-121
-4.28392e-122
2.3528e-122
9.06942e-125
-4.04463e-125
5.15503e-125
6.08097e-128
4.55599e-128
-5.88609e-128
4.06672e-131
1.65322e-131
-9.84211e-132
2.71282e-134
5.99934e-135
-6.04637e-140
1.80742e-137
5.19195e-138
-4.5425e-138
1.20109e-140
1.43246e-141
3.99943e-142
7.70991e-144
3.06653e-145
1.2976e-145
-1.49072e-147
2.77164e-148
-3.13995e-10
-2.66667e-08
-4.4545e-07
-4.41254e-07
-4.46599e-07
-4.55222e-07
-4.47248e-07
-4.93005e-07
-4.883e-07
-3.22214e-07
-2.56901e-08
2.95513e-09
-8.94363e-08
1.71751e-08
-9.3249e-08
3.81408e-08
-1.08902e-08