/*--------------------------------*- C++ -*----------------------------------*\
| =========                 |                                                 |
| \\      /  F ield         | OpenFOAM: The Open Source CFD Toolbox           |
|  \\    /   O peration     | Version:  5.0                                   |
|   \\  /    A nd           | Web:      www.OpenFOAM.org                      |
|    \\/     M anipulation  |                                                 |
\*---------------------------------------------------------------------------*/
FoamFile
{
    version     2.0;
    format      ascii;
    class       volScalarField;
    location    "4.3";
    object      p;
}
// * * * * * * * * * * * * * * * * * * * * * * * * * * * * * * * * * * * * * //

dimensions      [1 -1 -2 0 0 0 0];

internalField   nonuniform List<scalar> 
8311
(
102.389
101.558
102.368
101.428
101.675
101.326
100.884
96.022
93.1973
90.5457
87.9121
85.3139
82.7381
80.2036
77.6917
75.2082
72.7393
70.3048
67.8925
65.507
63.1255
60.7657
58.4374
56.1007
53.7887
51.4972
49.2104
46.922
44.652
42.4107
40.1652
37.9449
35.7549
33.5554
31.3476
29.1731
27.0537
24.9681
22.892
20.8094
18.756
16.7475
14.7431
12.709
10.7049
8.74793
6.79373
4.83422
2.89558
0.967993
102.534
101.414
101.534
102.18
101.512
101.126
100.396
96.5943
93.0108
90.5015
87.8888
85.3034
82.7545
80.2142
77.6912
75.2115
72.7375
70.3183
67.9111
65.5094
63.1317
60.7703
58.4305
56.1019
53.7795
51.4822
49.1996
46.9245
44.6599
42.4143
40.1804
37.9583
35.7501
33.5445
31.3488
29.1787
27.0473
24.9515
22.8731
20.8085
18.7618
16.752
14.7472
12.7269
10.712
8.73784
6.78105
4.8315
2.89645
0.967705
103.708
101.125
101.165
101.403
103.392
100.839
99.9774
96.492
92.9943
90.4619
87.8735
85.2808
82.7267
80.2056
77.6928
75.2007
72.7516
70.3407
67.9358
65.5107
63.1356
60.7721
58.4163
56.0952
53.7816
51.4769
49.1902
46.9318
44.6776
42.417
40.1848
37.9567
35.7282
33.5326
31.3582
29.1939
27.0477
24.9419
22.8694
20.8085
18.771
16.7508
14.7373
12.7254
10.7214
8.73587
6.77762
4.83341
2.89961
0.967892
109.025
89.9121
96.3315
98.2256
107.033
101.418
99.192
97.0734
92.9641
90.45
87.8599
85.298
82.7244
80.1951
77.6927
75.2061
72.7521
70.3326
67.9109
65.5126
63.1427
60.7729
58.4286
56.0989
53.7936
51.4875
49.1892
46.9372
44.6664
42.4056
40.1845
37.9511
35.7234
33.528
31.3658
29.2106
27.0535
24.9387
22.8718
20.82
18.7765
16.7387
14.716
12.7179
10.7291
8.73858
6.77746
4.84077
2.90589
0.962979
71.8107
92.4821
95.4605
100.119
101.278
100.905
99.0718
98.4582
92.97
90.4017
87.8414
85.2692
82.7212
80.1908
77.7008
75.2152
72.7646
70.3253
67.8918
65.5172
63.1476
60.7723
58.4305
56.1021
53.8023
51.5023
49.1989
46.9317
44.6549
42.3982
40.1785
37.943
35.7207
33.5267
31.3672
29.2196
27.0621
24.9412
22.8743
20.8268
18.7757
16.7251
14.6949
12.7092
10.727
8.74025
6.78486
4.85526
2.91443
0.961016
87.4278
76.2264
101.904
100.088
98.8933
101.907
98.7782
98.5083
92.9657
90.4127
87.8465
85.2728
82.7274
80.1977
77.7091
75.222
72.7723
70.3264
67.8836
65.5
63.1427
60.7667
58.4297
56.1117
53.8069
51.5154
49.2092
46.927
44.6485
42.3943
40.1721
37.9388
35.7143
33.5291
31.3704
29.2222
27.0763
24.9553
22.8786
20.8275
18.7682
16.707
14.681
12.6963
10.7214
8.74434
6.80092
4.879
2.92509
0.964017
106.178
102.307
98.7327
98.2808
97.9459
98.9608
99.1225
98.057
93.0451
90.4726
87.8809
85.2968
82.7553
80.2184
77.7112
75.2246
72.7727
70.3349
67.8872
65.4901
63.1266
60.7655
58.4292
56.1201
53.8134
51.5141
49.2151
46.922
44.6451
42.3976
40.1691
37.9277
35.7083
33.5359
31.3738
29.2163
27.0805
24.9675
22.8803
20.8185
18.7603
16.7043
14.6808
12.6965
10.7175
8.74633
6.80718
4.8786
2.92895
0.973136
97.328
97.5971
97.3357
45.1166
101.285
102.588
99.626
97.2457
93.1117
90.5242
87.898
85.308
82.7617
80.2214
77.6926
75.2289
72.7649
70.323
67.9006
65.4847
63.1188
60.7612
58.4269
56.1213
53.8133
51.518
49.2166
46.9201
44.6644
42.4111
40.1649
37.9243
35.7138
33.543
31.3732
29.2067
27.0801
24.9779
22.8852
20.8111
18.7551
16.7108
14.6905
12.6973
10.7154
8.74819
6.80581
4.86797
2.92725
0.976904
103.024
100.966
102.302
104.101
103.898
102.577
100.179
96.8266
93.1358
90.5631
87.9223
85.3296
82.7646
80.2208
77.705
75.2293
72.7462
70.3098
67.8964
65.495
63.1132
60.7556
58.4322
56.1166
53.8143
51.5186
49.214
46.9204
44.6539
42.4072
40.1547
37.9243
35.728
33.5466
31.3647
29.1972
27.0759
24.9836
22.89
20.8106
18.7538
16.7224
14.7076
12.6993
10.7108
8.7492
6.79874
4.85685
2.91596
0.977962
101.722
101.458
101.851
102.286
103.129
101.317
100.449
96.7081
93.1036
90.5339
87.912
85.314
82.7365
80.2169
77.701
75.2121
72.7416
70.3058
67.8903
65.4955
63.1149
60.7573
58.4356
56.1059
53.8033
51.5126
49.2141
46.9209
44.6509
42.4079
40.1569
37.9312
35.7459
33.5547
31.353
29.1792
27.0612
24.9771
22.8921
20.809
18.7544
16.7366
14.7246
12.7003
10.705
8.75189
6.79909
4.84446
2.90172
0.968424
102.335
101.774
102.374
101.834
101.413
101.272
100.886
96.0226
93.1973
90.5457
87.9122
85.314
82.7379
80.2037
77.6917
75.2077
72.7393
70.3048
67.8926
65.5069
63.1255
60.7657
58.4374
56.1005
53.7887
51.4972
49.2103
46.922
44.6518
42.4106
40.1652
37.945
35.755
33.5552
31.3475
29.173
27.0535
24.9681
22.8919
20.8094
18.7559
16.7475
14.7432
12.7091
10.7049
8.74799
6.79369
4.83418
2.89554
0.968063
103.23
101.828
101.552
101.448
101.397
101.151
100.437
96.5933
93.0112
90.5013
87.8888
85.3033
82.7544
80.2142
77.6912
75.2113
72.7375
70.3184
67.9111
65.5093
63.1318
60.7704
58.43
56.1018
53.7795
51.4822
49.1995
46.9245
44.6597
42.4143
40.1809
37.9584
35.7499
33.5445
31.3488
29.1787
27.0472
24.9515
22.873
20.808
18.7618
16.7521
14.7473
12.7266
10.712
8.73783
6.78093
4.83149
2.89665
0.967656
102.982
100.537
100.728
101.163
103.63
100.983
99.9669
96.4873
92.9958
90.4617
87.8735
85.2808
82.7267
80.2056
77.6928
75.2007
72.7515
70.3404
67.9359
65.5107
63.1355
60.772
58.4162
56.095
53.7816
51.4768
49.1901
46.9318
44.6777
42.4173
40.1847
37.9566
35.7283
33.5326
31.3583
29.1939
27.0476
24.9419
22.8693
20.8084
18.7711
16.7509
14.7373
12.7254
10.7214
8.73573
6.77758
4.83348
2.89963
0.967882
86.2752
102.974
98.5046
102.847
101.624
98.9519
99.1759
96.934
92.9646
90.4492
87.8599
85.2979
82.7244
80.1951
77.6927
75.2061
72.7521
70.3325
67.9108
65.5125
63.1427
60.7729
58.4286
56.0991
53.7934
51.4874
49.1893
46.9373
44.6664
42.4055
40.1844
37.951
35.7233
33.528
31.3658
29.2105
27.0534
24.9387
22.8717
20.82
18.7764
16.7387
14.7159
12.7178
10.7292
8.73856
6.77735
4.84074
2.90587
0.962858
124.453
99.0578
91.9777
100.916
101.987
100.351
99.0405
98.4796
92.9697
90.402
87.8414
85.2688
82.7209
80.1907
77.7009
75.2152
72.7646
70.3252
67.8917
65.5174
63.1476
60.7723
58.4301
56.1022
53.8021
51.5024
49.199
46.9316
44.6544
42.3981
40.1786
37.9429
35.7206
33.5267
31.3672
29.2196
27.0622
24.9412
22.8744
20.827
18.7757
16.7251
14.6949
12.7093
10.727
8.74023
6.78479
4.85516
2.91433
0.961062
105.891
90.8486
97.0862
98.0974
95.8764
101.69
98.7386
98.5429
92.9655
90.4129
87.8463
85.2728
82.7276
80.1977
77.709
75.2219
72.7723
70.3264
67.8835
65.5
63.1428
60.7661
58.4296
56.1116
53.807
51.5154
49.2091
46.9268
44.6485
42.3945
40.1721
37.9387
35.7142
33.5291
31.3704
29.2222
27.0763
24.9553
22.8786
20.8275
18.7681
16.707
14.681
12.6964
10.7212
8.74432
6.80089
4.87901
2.92481
0.963981
125.506
103.077
98.8571
98.3629
97.5887
98.9388
99.1019
97.9654
93.0456
90.4724
87.8809
85.2967
82.7552
80.2183
77.7112
75.2245
72.7727
70.3348
67.8872
65.4901
63.1265
60.7655
58.4292
56.1201
53.8132
51.5141
49.215
46.922
44.6452
42.3975
40.1693
37.9274
35.7082
33.536
31.3738
29.2163
27.0805
24.9674
22.8803
20.8185
18.7603
16.7041
14.6808
12.6965
10.7174
8.74631
6.80746
4.87867
2.92886
0.973262
97.325
98.5695
99.2093
37.1719
101.28
101.099
99.5806
97.2244
93.1124
90.524
87.898
85.3079
82.7617
80.2214
77.6926
75.2289
72.7652
70.3228
67.9011
65.4846
63.1188
60.7612
58.4269
56.1213
53.8133
51.5182
49.2169
46.9201
44.6643
42.4112
40.1648
37.9242
35.7138
33.543
31.3732
29.2067
27.0801
24.9779
22.8851
20.811
18.7551
16.7108
14.6905
12.6972
10.7154
8.74817
6.8058
4.86795
2.92723
0.976906
102.478
100.39
101.472
103.643
104.294
102.542
100.18
96.8231
93.1365
90.563
87.9223
85.3296
82.7646
80.2208
77.7049
75.2295
72.7463
70.3096
67.8964
65.4951
63.1132
60.7556
58.4323
56.1166
53.8143
51.5185
49.2139
46.9205
44.654
42.4072
40.1548
37.9242
35.7285
33.5466
31.3646
29.1974
27.0759
24.9835
22.8898
20.8106
18.7538
16.7225
14.7075
12.6991
10.7108
8.74915
6.79868
4.85682
2.91602
0.977963
101.485
100.652
110.094
102.314
102.041
101.17
100.491
96.7053
93.1041
90.5337
87.9121
85.3139
82.7365
80.217
77.701
75.2123
72.7416
70.3058
67.8904
65.4954
63.1148
60.7571
58.4356
56.1059
53.8033
51.5126
49.2141
46.9209
44.6509
42.4079
40.1568
37.9312
35.7461
33.5547
31.3529
29.1794
27.0612
24.9771
22.8921
20.809
18.7544
16.7365
14.7246
12.7002
10.7049
8.75186
6.79887
4.84444
2.90175
0.968409
102.347
101.904
102.769
102.292
103.027
101.103
100.887
96.0224
93.1971
90.5457
87.9122
85.314
82.7377
80.2037
77.6916
75.2074
72.7392
70.3049
67.8926
65.5066
63.1254
60.7658
58.4372
56.1004
53.7886
51.4972
49.2101
46.922
44.6516
42.4106
40.1652
37.945
35.7549
33.5551
31.3474
29.173
27.0534
24.968
22.8919
20.8093
18.7557
16.7475
14.7432
12.7092
10.705
8.74797
6.79356
4.83409
2.89543
0.968022
103.936
102.886
101.73
101.971
101.297
101.153
100.441
96.5939
93.0106
90.5014
87.8887
85.3032
82.7543
80.2141
77.6911
75.2111
72.7374
70.3187
67.9108
65.5091
63.1319
60.7704
58.4291
56.1012
53.7794
51.4821
49.1991
46.9244
44.6596
42.4147
40.1809
37.9583
35.7498
33.5445
31.3488
29.1786
27.0471
24.9519
22.8728
20.808
18.762
16.7521
14.7471
12.726
10.712
8.73782
6.78073
4.83143
2.8967
0.967453
103.925
101.35
101.374
99.2302
103.929
100.727
99.9643
96.4901
92.9956
90.4618
87.8734
85.2807
82.7266
80.2055
77.6927
75.2006
72.7514
70.3401
67.9358
65.5106
63.1352
60.7719
58.4162
56.0949
53.7816
51.4767
49.19
46.9317
44.6777
42.4172
40.1841
37.9562
35.7283
33.5327
31.3584
29.1938
27.0474
24.9419
22.8693
20.8083
18.7715
16.7509
14.737
12.7251
10.7213
8.73561
6.77749
4.83347
2.89959
0.967552
88.0778
98.9766
99.7443
99.503
99.8796
100.972
99.1837
96.943
92.9641
90.4491
87.8598
85.2978
82.7243
80.195
77.6926
75.206
72.752
70.3323
67.9107
65.5123
63.1429
60.7728
58.4286
56.0991
53.7932
51.4871
49.1894
46.9372
44.6665
42.4054
40.1844
37.9509
35.7232
33.5279
31.3658
29.2104
27.0533
24.9386
22.8718
20.82
18.7763
16.7383
14.7158
12.7177
10.7292
8.73849
6.77724
4.84068
2.9058
0.962526
140.435
95.4094
90.8529
100.719
102.03
100.25
99.0475
98.4759
92.9693
90.4021
87.8414
85.2686
82.7207
80.1907
77.7009
75.2152
72.7645
70.3251
67.8915
65.5175
63.1477
60.7724
58.4296
56.1022
53.8018
51.5024
49.199
46.9316
44.6542
42.3979
40.1786
37.9429
35.7205
33.5266
31.3672
29.2195
27.0622
24.9412
22.8743
20.8272
18.7754
16.7251
14.6948
12.7092
10.7265
8.74016
6.78493
4.85505
2.91425
0.960971
88.4553
88.6854
94.197
98.2344
96.6603
99.6556
98.7586
98.5381
92.965
90.4129
87.8461
85.2727
82.7276
80.1976
77.7088
75.2218
72.7722
70.3265
67.8833
65.4999
63.1429
60.7659
58.4295
56.1114
53.807
51.5154
49.209
46.9267
44.6484
42.3946
40.1722
37.9385
35.714
33.529
31.3703
29.2221
27.0763
24.9552
22.8785
20.8276
18.768
16.7069
14.681
12.6965
10.721
8.74424
6.8009
4.879
2.92438
0.963956
156.279
114.79
100.086
93.9095
98.1957
97.9421
99.0722
97.9776
93.0451
90.4724
87.8808
85.2967
82.7551
80.2183
77.7111
75.2245
72.7726
70.3346
67.8871
65.4901
63.1263
60.7654
58.4291
56.12
53.813
51.514
49.2149
46.9223
44.6453
42.3976
40.1693
37.9273
35.7082
33.5359
31.3738
29.2161
27.0805
24.9674
22.8802
20.8185
18.7603
16.7039
14.6807
12.6966
10.7172
8.74624
6.80749
4.87842
2.92841
0.973255
100.495
99.2833
99.34
84.0738
103.794
100.984
99.5987
97.2266
93.112
90.5241
87.8979
85.3079
82.7616
80.2213
77.6925
75.2288
72.7655
70.3225
67.9011
65.4846
63.1187
60.7612
58.4272
56.1212
53.8132
51.5184
49.2168
46.9199
44.6641
42.4111
40.1647
37.9241
35.7138
33.5429
31.3731
29.2067
27.08
24.9777
22.8851
20.8109
18.7551
16.7108
14.6906
12.6972
10.7152
8.7481
6.80575
4.8679
2.92721
0.976909
103.673
105.007
101.827
104.108
104.323
102.369
100.181
96.8233
93.1362
90.563
87.9222
85.3295
82.7645
80.2207
77.7048
75.2296
72.7464
70.3094
67.8964
65.4951
63.1131
60.7555
58.4322
56.1165
53.814
51.5185
49.2135
46.9205
44.6546
42.4073
40.1549
37.9241
35.7291
33.5465
31.3644
29.1973
27.0758
24.9833
22.8897
20.8105
18.7539
16.7227
14.7075
12.6988
10.7107
8.74907
6.79851
4.85675
2.91618
0.97787
101.357
101.186
106.006
100.078
102.28
102.419
100.486
96.7054
93.1036
90.5337
87.912
85.3137
82.7363
80.217
77.7009
75.2125
72.7415
70.3058
67.8904
65.4954
63.1147
60.757
58.4355
56.1058
53.8033
51.5125
49.214
46.9208
44.6508
42.4079
40.1564
37.9313
35.7464
33.5546
31.3528
29.1795
27.0613
24.977
22.892
20.809
18.7543
16.7364
14.7245
12.7
10.7049
8.75207
6.7987
4.84436
2.90175
0.968339
100.787
101.399
100.672
101.305
100.793
101.375
100.677
100.533
100.781
100.245
101.172
100.533
100.79
100.231
100.173
99.1851
99.3589
101.305
100.085
98.9482
99.3934
99.4718
98.6802
99.1646
99.7458
99.335
99.7715
98.9396
99.0229
99.9007
98.858
100.533
99.0265
100.159
98.8155
98.7175
98.1063
98.6406
101.365
98.7078
98.1167
98.6414
98.822
100.386
99.6836
98.766
98.7821
100.152
99.6735
99.9573
101.524
100.421
101.037
99.9374
101.469
100.419
100.427
101.557
100.617
105.347
100.42
101.486
100.613
100.65
101.764
100.844
101.114
100.651
101.727
100.849
100.792
101.383
100.677
101.09
100.796
101.384
100.678
100.533
100.775
100.246
101.095
100.529
100.831
100.246
100.161
99.2991
99.3609
100.777
100.09
99.8019
99.3801
99.2253
99.8063
98.9863
102.038
99.2694
99.5417
98.8325
99.0244
100.384
98.7856
100.319
99.0609
99.7984
98.8482
98.6856
98.3576
98.659
99.8814
98.7044
97.7225
98.6531
99.3653
100.161
99.6746
98.9408
99.0026
100.34
99.6963
99.9399
101.462
100.422
100.926
99.9412
101.388
100.423
100.43
101.411
100.615
102.372
100.438
101.279
100.608
100.651
101.449
100.846
101.146
100.648
101.555
100.845
100.797
101.403
100.679
101.173
100.79
101.387
100.678
100.529
100.833
100.267
101.08
100.529
100.826
100.259
100.21
99.3384
99.4003
100.875
100.144
99.8652
99.3949
99.335
99.4464
98.9925
96.9884
99.3288
99.4772
98.7896
99.0234
98.9294
98.8076
100.469
99.0272
101.33
98.8258
98.696
98.5425
98.6519
99.299
98.7059
98.0413
98.6498
98.9086
100.473
99.6765
101.691
98.7847
100.375
99.6878
99.9428
101.371
100.425
101.005
99.9447
101.474
100.421
100.436
101.112
100.604
104.677
100.434
101.35
100.6
100.649
101.407
100.846
101.119
100.646
101.428
100.84
101.351
101.812
102.012
101.111
101.278
101.642
101.69
101.024
101.234
101.081
101.325
101.048
101.043
101.03
98.0874
100.668
98.0684
100.886
98.0927
100.698
98.0722
100.966
101.919
102.654
101.539
101.086
101.876
100.882
100.871
100.821
101.158
101.227
100.827
101.49
100.791
97.9545
100.105
97.8698
100.431
97.9644
100.106
97.8735
99.86
99.6571
101.41
102.698
101.766
99.651
99.2879
100.103
100.426
100.278
100.806
100.452
100.52
100.101
97.9057
99.3095
98.5516
99.9768
97.8942
99.2692
98.4482
101.364
102.293
112.516
101.928
113.972
103.133
153.107
97.663
99.4304
97.9994
99.2715
99.3702
97.9594
97.7136
98.8469
98.9953
99.0273
99.1911
98.8929
98.9992
99.0502
119.373
99.8542
108.197
100.697
97.13
97.4392
101.562
98.1113
99.5056
98.6828
100.62
99.509
99.0945
98.037
99.0055
98.877
98.8226
99.0457
99.0125
98.8556
98.8271
132.58
97.0414
99.1512
99.3509
131.055
96.6141
95.7218
97.6555
99.9028
96.6849
101.715
99.6913
96.3995
97.6583
98.7922
98.8066
98.8562
98.7586
98.7949
98.8032
98.8618
97.5591
99.7956
100.083
98.3517
95.6062
98.8568
99.8848
99.1025
98.7501
99.5158
98.9635
98.6965
99.5129
99.1002
98.9022
99.4836
99.0218
99.1037
98.9258
99.4775
99.0524
102.467
105.427
102.783
100.42
102.991
104.029
102.954
100.828
100.68
102.536
101.203
100.552
101.939
100.851
98.7861
100.143
98.1737
99.5915
98.7338
100.129
98.1327
99.6398
101.771
102.793
103.871
116.772
103.22
101.363
100.875
100.918
109.268
103.832
100.917
104.804
100.852
98.1838
100.359
98.1035
100.18
98.1842
100.365
98.1129
102.087
98.6037
103.728
102.191
102.117
99.1024
104.48
101.288
100.713
102.299
101.244
100.656
102.276
101.26
98.115
100.88
98.1966
100.49
98.1254
100.898
98.1925
101.357
101.565
101.717
101.337
101.389
101.759
101.924
101.01
101.07
101.069
101.31
101.016
101.061
101.054
98.089
100.709
98.068
100.886
98.0887
100.709
98.0677
101.339
101.846
100.715
101.291
100.861
101.52
101.412
100.785
100.811
101.063
101.084
100.751
100.827
101.086
97.9627
100.106
97.8702
100.443
97.9627
100.105
97.871
100.262
99.8361
99.2603
104.308
100.142
101.407
100.957
100.01
100.408
99.8609
101.097
100.025
100.436
100.529
97.892
99.2777
98.449
99.9587
97.8926
99.2559
98.4465
119.76
102.431
107.793
101.364
99.7003
101.012
97.5885
97.5376
99.2775
97.4711
101.031
97.6085
99.2823
97.5332
98.9003
99.0153
99.0545
99.1813
98.9005
99.0563
99.0543
97.2145
97.1684
102.056
101.975
97.369
96.2791
99.9305
99.3912
99.4282
100.702
100.367
99.0523
99.3859
100.224
99.013
98.8627
98.8264
99.1023
99.0112
98.863
98.8256
141.415
96.6196
95.6447
96.2721
97.599
96.4588
98.0746
97.6565
99.5171
96.9187
100.532
97.7088
99.7277
97.0708
98.7967
98.8033
98.8616
98.785
98.7948
98.8011
98.8622
102.259
98.9722
100.313
97.7556
100.58
99.0322
99.512
99.1092
98.6905
99.5444
98.8555
99.1625
98.6772
99.5149
98.9291
99.4726
99.0582
99.0923
98.9295
99.477
99.057
102.926
104.182
103.322
103.945
103.559
105.041
103.117
100.816
100.57
101.294
101.129
100.789
100.575
101.288
98.7224
100.162
98.1282
99.5935
98.7222
100.127
98.1278
112.218
103.494
101.605
104.126
114.691
101.244
101.762
100.968
100.935
113.434
103.231
101.52
100.945
100.202
98.1821
100.368
98.1104
100.18
98.1831
100.355
98.1103
102.124
99.5567
104.766
102.295
103.947
109.308
102.377
101.184
100.64
102.284
101.228
101.199
100.603
102.273
98.1236
100.9
98.1893
100.49
98.1234
100.898
98.1894
101.478
101.454
101.836
103.3
101.496
101.699
102.07
100.97
101.074
101.041
101.133
100.963
101.047
101.097
98.0923
100.705
98.0718
100.883
98.0869
100.671
98.0673
101.503
102.994
102.164
101.164
101.157
103.475
102.845
100.998
100.812
101.17
101.103
100.953
100.814
101.188
97.9644
100.106
97.875
100.397
97.9529
100.103
97.8707
101.646
100.822
101.386
105.696
100.552
99.02
103.125
99.9736
100.388
100.141
103.094
99.9565
100.624
100.136
97.8947
99.2742
98.4444
99.9696
97.908
99.3007
98.5505
97.6148
101.518
97.6227
100.314
97.4995
102.278
98.4661
97.547
99.1241
96.7491
98.101
97.6172
99.1511
96.7071
98.8934
99.0303
99.0518
99.1806
98.8473
99.0115
99.0277
97.3679
99.7176
99.3051
101.943
97.3184
99.276
98.1858
99.1256
99.2989
99.4323
100.287
99.1967
99.2816
99.1272
99.0097
98.8593
98.829
99.0527
99.0006
98.8924
98.8224
99.1205
96.4267
98.0347
97.5285
90.7143
98.6696
96.6551
97.693
99.1377
96.6684
99.34
97.6596
99.165
96.8435
98.7983
98.8233
98.8625
98.7531
98.7934
98.8212
98.8568
103.741
99.1736
102.307
98.9232
101.481
100.002
100.158
99.1916
98.7406
99.6263
97.8001
99.0897
98.6687
99.5548
98.927
99.4714
99.0516
99.1014
98.9028
99.4807
99.0216
102.447
103.7
103.199
105.469
102.509
103.61
104.277
100.827
100.619
101.448
100.989
100.828
100.638
101.12
98.7313
100.155
98.1325
99.6325
98.7853
100.152
98.1722
116.238
101.349
101.639
103.296
124.867
100.866
101.492
101.025
100.959
101.902
101.493
101.308
100.96
101.353
98.1847
100.345
98.1127
100.18
98.1841
100.329
98.1033
103.652
110.178
103.024
103.304
103.8
109.705
102.897
101.156
100.609
102.073
101.766
101.355
100.61
101.862
98.1252
100.895
98.1926
100.45
98.1145
100.876
98.1968
100.845
100.908
100.747
100.796
100.758
100.856
100.882
101.055
101.24
101.052
101.369
101.23
101.054
101.089
100.871
100.73
100.823
100.679
100.738
100.823
100.871
101.026
101.353
101.066
101.058
101.038
101.016
101.039
100.836
100.795
100.881
100.754
100.757
100.834
100.902
101.057
101.37
101.227
101.053
101.227
101.056
101.068
100.872
100.677
100.735
100.823
100.736
100.823
100.867
100.511
100.619
100.463
100.533
100.605
100.443
100.514
100.965
101.216
100.746
100.782
101.182
100.578
101.022
100.469
100.406
100.324
100.22
100.363
100.315
100.504
100.737
101.056
100.814
101.061
100.817
100.982
100.73
100.519
100.535
100.61
100.444
100.61
100.441
100.48
101.041
100.78
101.169
100.608
101.275
100.591
100.89
100.466
100.257
100.372
100.316
100.409
100.331
100.462
99.9522
100.263
99.9571
100.142
100.272
99.945
99.9453
100.864
101.859
99.2608
99.7272
100.404
99.2528
100.165
100.02
99.9811
99.3475
99.3579
99.7938
99.3378
99.9907
100.064
100.815
100.423
99.9314
100.418
99.9649
100.024
99.9472
100.277
100.274
99.8985
100.288
99.9234
99.9366
99.6998
99.4326
100.447
99.2783
100.433
99.3303
99.5296
100.017
99.4921
99.6681
99.3497
99.6634
99.342
100.034
98.5879
99.3904
99.0091
99.4059
99.3002
98.8229
98.6032
100.079
120.547
98.6623
99.8448
109.215
98.6915
100.29
98.233
99.1169
98.7284
98.9426
98.9621
98.7215
98.2445
97.6503
99.3209
99.3001
98.3678
99.326
98.0929
97.621
98.5756
99.4001
99.2392
98.8828
99.5676
98.9838
98.5831
100.05
128.685
120.586
98.7539
114.655
98.6751
100.061
98.2332
98.9403
98.9598
98.7066
99.025
98.6946
98.2601
98.9779
99.1685
98.9498
99.007
99.1424
98.9298
98.9524
98.803
99.2833
99.0878
99.5329
99.7822
99.0854
98.791
98.7821
98.8227
99.0028
98.7967
98.7734
98.9662
98.8308
98.6428
100.674
99.4566
99.8247
99.4778
100.075
100.652
98.9356
99.0539
99.1493
98.9175
99.1403
98.943
98.9264
98.7194
99.1591
99.2415
99.0824
99.0137
99.083
98.7982
98.7835
98.7932
98.7751
98.962
98.7761
98.9677
98.7749
98.2874
98.9052
98.4602
98.6986
98.9087
98.4555
98.303
98.0179
98.1244
98.3769
98.0544
97.6592
98.3569
98.027
98.2118
98.4172
98.4586
98.641
98.4258
98.4595
98.2091
97.696
102.588
99.6729
97.104
99.6505
96.3502
97.6672
98.2871
98.6902
98.9059
98.461
98.9107
98.4552
98.2972
97.9738
98.0548
97.6433
98.3023
97.6659
98.3264
97.9537
98.2453
98.653
98.4098
98.4646
98.4448
98.465
98.2121
99.0938
98.8349
99.1952
98.7936
98.7828
99.1984
99.0943
99.7612
100.392
100.141
100.269
99.958
100.039
99.8
99.5026
99.4568
99.885
99.6812
99.4754
99.8753
99.4905
99.1124
98.9618
98.7042
99.5035
98.73
99.5072
99.1236
99.102
98.8627
98.8279
99.1713
98.8792
99.1724
99.1059
99.7779
100.173
99.9884
100.078
99.9442
100.066
99.9292
99.4919
99.676
99.4541
99.8587
99.4651
99.8667
99.4721
100.469
100.207
100.179
99.9371
100.208
100.155
100.472
101.068
101.31
101.088
101.505
101.304
101.087
101.075
100.604
100.237
100.642
100.423
100.234
100.648
100.609
100.825
100.933
100.559
101.343
100.544
101.401
100.809
100.467
99.94
100.193
100.157
100.187
100.159
100.467
101.063
101.492
101.274
101.076
101.281
101.088
101.056
100.6
100.428
100.233
100.646
100.239
100.655
100.586
100.594
100.43
100.563
100.428
100.434
100.553
100.592
100.266
104.57
101.062
101.646
101.458
101.082
108.122
99.7956
100.786
101.019
100.616
100.528
100.822
99.7866
100.901
101.948
100.929
114.463
100.964
105.139
101.317
100.556
100.476
100.418
100.6
100.426
100.557
100.558
103.878
101.454
101.729
101.649
101.349
100.886
103.546
100.69
100.614
100.519
100.993
100.505
100.828
100.478
100.959
100.777
100.764
100.652
100.761
100.771
100.963
101.274
102.063
101.212
101.784
102.075
101.245
101.229
100.843
100.838
100.873
100.852
100.845
100.851
100.869
101.181
101.134
100.546
102.26
100.563
102.268
101.191
100.969
100.652
100.76
100.769
100.762
100.77
100.944
101.236
102.171
102.017
101.18
102.164
101.307
101.396
100.846
100.851
100.843
100.868
100.845
100.837
100.87
100.829
100.923
100.754
100.793
100.836
100.753
100.873
101.067
101.237
101.052
101.392
101.065
101.247
101.053
100.864
100.733
100.823
100.676
100.871
100.733
100.818
101.003
101.081
101.063
101.049
101.057
101.013
101.053
100.827
100.794
100.862
100.753
100.753
100.818
100.864
101.061
101.386
101.26
101.05
101.277
101.055
101.055
100.865
100.677
100.734
100.815
100.733
100.817
100.864
100.427
100.617
100.456
100.531
100.448
100.609
100.461
100.869
101.582
100.678
100.787
100.91
101.154
100.624
100.447
100.383
100.317
100.237
100.458
100.377
100.307
100.816
101.108
100.823
101.119
100.828
101.103
100.902
100.442
100.531
100.607
100.465
100.614
100.466
100.479
100.88
100.785
101.007
100.594
102.129
100.623
100.866
100.462
100.249
100.374
100.31
100.382
100.307
100.421
99.9148
100.267
99.8912
100.153
99.9695
100.271
99.9158
99.5649
99.7377
99.2428
99.1996
99.2461
99.4864
99.2359
100.012
99.5895
99.3406
99.3449
100.02
99.6387
99.3626
100.002
100.718
100.39
100.136
100.414
101.823
99.9076
99.9057
100.088
100.205
99.8953
100.231
99.8941
99.9013
99.6298
99.4562
101.195
99.1972
100.367
99.2268
102.896
100.197
99.3843
99.5663
99.3433
99.6248
99.344
100.046
98.5747
99.2042
98.815
99.2176
98.5766
99.2077
98.8379
98.8455
98.475
98.5597
99.8285
99.5165
98.4223
98.5605
98.3187
98.9725
98.763
98.8765
98.283
98.9332
98.7192
97.546
104.031
99.2242
98.2604
99.2722
97.7086
97.53
98.5578
99.2821
99.2012
98.8112
99.1995
98.8427
98.5679
98.7619
99.6338
98.8113
98.6084
98.6239
98.5992
98.6999
98.3504
98.8584
98.9252
98.741
98.9649
98.7222
98.3884
98.9271
99.1318
98.9162
99.0581
98.9252
99.1429
98.9587
98.7822
100.465
99.0844
98.8028
98.7934
98.9574
99.0869
98.7859
98.7744
98.9624
98.8346
98.7756
98.8293
98.9772
99.32
100.344
99.3267
99.0547
99.3658
99.164
99.3728
98.9271
99.0761
99.1337
98.9462
99.1289
98.9185
98.9251
98.7742
98.9247
100.95
99.0872
98.9372
99.0878
98.7661
98.788
98.8036
98.8075
98.983
98.7758
98.9744
98.7936
98.2976
98.8993
98.4522
98.7004
98.2952
98.8894
98.4586
97.9288
97.5772
98.2738
97.9617
97.9312
97.5081
98.2175
98.2245
98.4304
98.4663
98.6571
98.2235
98.4196
98.4566
97.6766
99.8636
99.3518
96.6224
99.2842
96.8698
97.6363
98.2976
98.6933
98.8766
98.4567
98.8835
98.4463
98.2953
97.949
98.1057
97.8611
98.1748
97.8024
98.1814
97.9723
98.2369
98.6585
98.4243
98.4591
98.4324
98.4616
98.2365
99.1127
98.8023
99.1733
99.0948
99.1096
98.7167
99.1785
99.7895
99.9118
100.098
100.297
99.9027
100.268
100.194
99.4884
99.4673
99.8453
99.6714
99.481
99.474
99.845
99.0908
99.0272
98.655
99.6224
98.6945
99.5193
99.083
99.1235
99.2639
98.706
99.1746
98.8327
99.1802
99.1334
99.7926
100.596
99.9495
99.9482
100.668
100.61
99.7177
99.4843
99.6768
99.4501
99.8291
99.4716
99.8345
99.4691
100.467
100.2
100.174
99.939
100.48
100.2
100.161
101.047
101.306
101.067
101.436
101.057
101.285
101.061
100.58
100.237
100.634
100.417
100.581
100.238
100.65
100.822
100.902
100.642
101.469
100.648
101.354
100.86
100.458
99.9452
100.206
100.175
100.205
100.166
100.454
101.041
101.416
101.294
101.064
101.303
101.062
101.043
100.577
100.422
100.238
100.653
100.25
100.663
100.571
100.628
100.422
100.55
100.419
100.54
100.421
100.51
104.147
101.72
100.853
101.336
103.727
101.8
100.672
101.2
100.642
101.011
100.613
101.354
100.672
101.223
100.763
102.788
100.96
101.521
100.952
101.555
101.338
100.374
100.417
100.429
100.63
100.426
100.539
100.715
104.14
101.217
101.853
100.444
101.581
100.472
104.194
100.787
100.608
100.632
102.017
100.631
101.078
101.108
100.937
100.756
100.768
100.649
100.951
100.745
100.769
101.289
101.73
101.187
101.601
101.291
101.711
101.222
100.834
100.842
100.857
100.845
100.837
100.842
100.856
101.146
101.241
100.619
102.27
100.553
102.263
101.161
100.936
100.647
100.833
100.772
100.753
100.771
100.931
101.297
101.581
101.647
101.179
101.719
101.323
101.236
100.832
100.845
100.844
100.845
100.843
100.83
100.864
100.787
100.863
100.754
100.798
100.822
100.755
100.859
101.055
101.251
101.044
101.382
101.051
101.259
101.045
100.869
100.736
100.814
100.682
100.862
100.739
100.813
100.984
101.16
101.179
101.154
101.048
101.062
101.092
100.792
100.8
100.865
100.749
100.757
100.866
100.865
101.06
101.384
101.274
101.067
101.268
101.049
101.077
100.865
100.684
100.733
100.814
100.742
100.813
100.865
100.446
100.61
100.47
100.531
100.449
100.611
100.46
100.918
100.69
100.579
100.84
100.873
100.833
100.567
100.423
100.399
100.302
100.238
100.42
100.359
100.313
101.005
101.095
100.829
101.341
100.805
101.305
101.006
100.461
100.533
100.612
100.471
100.611
100.461
100.458
100.949
100.851
100.854
100.56
100.871
100.568
100.973
100.421
100.239
100.397
100.315
100.365
100.313
100.444
99.9105
100.19
99.9034
100.132
99.8974
100.201
99.9476
99.897
99.5246
99.8777
99.3104
99.7736
99.5448
99.4654
100.094
99.6298
99.3548
99.3664
100.041
99.6238
99.3587
100.016
100.94
100.513
101.159
100.53
100.109
100.033
99.9145
100.126
100.234
99.9486
100.21
99.9317
99.94
100.255
100.725
100.978
99.5318
99.6172
99.4378
100.299
99.9615
99.3641
99.7291
99.3641
99.6629
99.3555
100.218
98.5814
99.2183
98.8686
99.2371
98.5787
99.2377
98.8401
98.6456
98.8494
98.5564
99.3947
98.6665
98.9345
98.5538
98.4249
98.94
98.7832
98.8308
98.4117
98.9335
98.7399
97.5378
97.6026
99.1322
96.6785
99.1035
96.5479
97.5479
98.5873
99.2971
99.2399
98.9744
99.2455
98.8443
98.5918
98.6338
99.5384
99.8898
98.5702
98.9202
98.5682
98.6235
98.4596
98.7909
99.0305
98.7491
98.938
98.7392
98.4497
98.9237
99.1337
98.9376
99.0292
98.9231
99.1336
98.9469
98.7139
98.8278
99.076
98.5023
98.7359
98.2555
99.2067
98.7694
98.7815
98.9819
98.8125
98.7791
98.787
98.9816
99.1227
100.207
99.4252
99.0716
99.2686
99.1221
99.3451
98.9023
99.0293
99.1462
98.9635
99.1227
98.9373
99.0479
98.7332
104.408
102.72
99.2656
101.155
99.17
98.7566
98.7778
98.8207
98.8179
98.9878
98.782
98.9793
98.8687
98.3089
98.8653
98.4516
98.7091
98.3104
98.8551
98.4557
97.9666
97.4341
98.2338
98.1446
97.9671
98.5626
98.1733
98.2345
98.4347
98.4694
98.6493
98.2341
98.4269
98.4557
97.7299
99.3233
99.0758
96.7469
99.1055
96.6862
97.7792
98.3032
98.6971
98.8473
98.4557
98.8495
98.456
98.3075
97.9588
98.0512
97.5507
98.2634
97.1725
98.2083
98.0537
98.2471
98.6528
98.4419
98.4516
98.4298
98.4556
98.2349
99.1083
98.6903
99.1731
98.6151
99.1173
98.7236
99.1792
99.7649
101.119
100.036
100.499
99.7345
99.6483
100.016
99.4166
99.4485
99.8855
99.6749
99.429
99.455
99.8637
99.274
106.055
98.6377
99.7801
98.5684
100.165
99.1987
99.0983
98.9908
98.7108
99.2249
98.7054
99.1988
99.1104
99.9332
100.415
99.6592
100.082
99.6071
100.069
99.8741
99.4922
99.6749
99.4571
99.8942
99.4633
99.9066
99.4964
100.446
100.212
100.176
99.9445
100.455
100.211
100.172
101.042
101.295
101.071
101.373
101.044
101.292
101.073
100.576
100.242
100.661
100.42
100.566
100.242
100.676
100.827
101.003
100.718
101.308
100.663
101.4
100.841
100.45