/*--------------------------------*- C++ -*----------------------------------*\
| =========                 |                                                 |
| \\      /  F ield         | OpenFOAM: The Open Source CFD Toolbox           |
|  \\    /   O peration     | Version:  5.0                                   |
|   \\  /    A nd           | Web:      www.OpenFOAM.org                      |
|    \\/     M anipulation  |                                                 |
\*---------------------------------------------------------------------------*/
FoamFile
{
    version     2.0;
    format      ascii;
    class       surfaceScalarField;
    location    "4.3";
    object      phi;
}
// * * * * * * * * * * * * * * * * * * * * * * * * * * * * * * * * * * * * * //

dimensions      [0 3 -1 0 0 0 0];

internalField   nonuniform List<scalar> 
24781
(
-6.7358e-09
2.16294e-09
7.87249e-09
-2.771e-09
3.35368e-09
-6.32818e-09
-6.47262e-10
-7.89394e-09
1.17951e-08
2.95794e-11
1.15559e-09
4.96253e-09
9.06852e-10
8.27537e-10
5.51845e-10
4.93776e-09
6.88147e-10
-1.23333e-08
7.21334e-10
-2.03907e-10
1.75114e-10
-2.46145e-10
2.51964e-10
1.05678e-10
6.85945e-11
-1.04615e-10
-2.83637e-13
2.00953e-11
8.61243e-11
1.46421e-09
2.2965e-12
-3.9602e-11
-2.56137e-10
-2.59426e-10
-4.41807e-10
-4.54642e-10
-3.63211e-12
2.22932e-12
-6.08794e-12
1.42549e-09
1.97587e-11
-9.44768e-13
1.42094e-09
2.04331e-12
-7.42331e-13
1.41726e-09
1.68369e-12
-1.00826e-13
1.41692e-09
5.03658e-13
-6.93584e-14
1.41747e-09
2.95357e-13
-1.33453e-13
1.41622e-09
-2.69256e-13
-3.75025e-13
1.41617e-09
-1.0686e-13
1.47918e-13
1.41672e-09
-5.87909e-13
2.96487e-13
1.41665e-09
1.91031e-13
-6.43212e-14
1.41676e-09
-5.84255e-14
2.10729e-13
1.41627e-09
-2.78691e-13
4.02913e-13
1.41673e-09
6.25101e-14
7.55355e-13
1.41676e-09
2.9617e-15
4.9939e-13
1.41653e-09
3.55435e-14
1.92449e-13
1.41681e-09
2.77053e-13
-6.90459e-13
1.41681e-09
-3.21046e-13
7.41457e-14
1.41688e-09
1.07442e-13
-1.80367e-14
1.41683e-09
1.13614e-13
1.67387e-13
1.41668e-09
1.28695e-13
-1.75777e-14
1.41686e-09
-6.44867e-14
-1.4402e-14
1.4164e-09
8.32171e-13
-1.73141e-12
1.4166e-09
-4.29046e-13
8.30909e-13
1.41576e-09
-1.0026e-12
3.92975e-12
1.41583e-09
-7.67934e-13
2.85374e-12
1.41633e-09
1.79113e-13
-1.30536e-12
1.41731e-09
-2.35423e-12
1.2588e-12
1.41692e-09
3.75308e-13
2.58605e-14
1.41625e-09
1.34627e-13
7.09372e-13
1.4159e-09
4.45806e-13
-1.47078e-13
1.4157e-09
8.90809e-13
-8.54884e-13
1.41757e-09
-3.13462e-12
7.84017e-13
1.41676e-09
5.09338e-13
1.67871e-13
1.41662e-09
8.00028e-14
1.77955e-14
1.41658e-09
-8.84174e-14
-2.12927e-13
1.41767e-09
-4.9174e-13
1.32899e-12
1.41601e-09
3.46937e-12
-1.5508e-12
1.4163e-09
-3.86201e-13
7.15727e-15
1.4164e-09
3.40021e-13
-6.37074e-13
1.41687e-09
6.18551e-13
-1.23973e-12
1.41668e-09
-1.90585e-13
4.2785e-13
1.4161e-09
-5.38033e-13
9.02001e-13
1.28267e-12
-1.17743e-12
4.12457e-09
-7.20169e-10
3.50604e-09
-1.52904e-09
-1.05859e-09
-7.70958e-10
1.87852e-09
3.72332e-09
1.8765e-09
1.04888e-09
-9.5227e-09
2.4585e-09
-6.36102e-10
1.99853e-09
-4.27735e-09
3.61857e-09
-4.84042e-11
3.85153e-09
-1.55937e-09
5.32244e-10
-1.27511e-09
2.80926e-10
-1.86441e-10
-5.25819e-11
-6.78002e-10
1.15478e-10
9.42829e-11
-6.07484e-11
-1.28178e-10
-2.08351e-11
-9.27791e-11
-1.78048e-11
7.75248e-11
-1.09084e-10
1.42143e-10
-3.435e-11
2.03298e-10
-1.42403e-12
-4.20659e-12
-3.4781e-11
-6.24744e-11
-6.37674e-11
1.40427e-09
-5.45842e-12
-2.29943e-11
-2.53731e-10
-2.58573e-10
-4.16263e-10
-4.27506e-10
1.4112e-09
-2.68753e-12
-2.26319e-12
1.41397e-09
-1.65656e-12
5.41904e-13
1.41541e-09
-9.05495e-13
-4.75588e-14
1.41622e-09
-6.25717e-13
9.09774e-14
1.41652e-09
-5.99161e-13
1.39209e-14
1.41689e-09
-5.02513e-13
-7.50944e-15
1.41624e-09
3.49138e-13
-3.18357e-13
1.41654e-09
-2.75538e-13
1.31363e-13
1.4172e-09
-1.2828e-12
5.38711e-13
1.41626e-09
1.46978e-12
-8.33955e-13
1.41651e-09
-4.33856e-13
2.1953e-13
1.41642e-09
7.32329e-14
-5.23923e-15
1.41633e-09
1.03185e-13
3.58042e-15
1.41671e-09
-4.32198e-13
3.02358e-13
1.41688e-09
8.20413e-13
-1.33145e-12
1.41681e-09
1.47544e-13
1.49668e-14
1.4168e-09
1.31836e-13
-3.40054e-14
1.41702e-09
3.70639e-14
-1.4466e-13
1.41733e-09
-4.77352e-13
8.82713e-14
1.41545e-09
-1.95198e-12
4.64819e-12
1.41567e-09
-5.02052e-13
-1.65719e-13
1.4163e-09
2.8949e-13
-1.93087e-12
1.41655e-09
6.69547e-13
-1.69919e-12
1.41751e-09
-4.75892e-12
3.96495e-12
1.41694e-09
-3.26016e-12
1.46656e-12
1.41652e-09
8.02945e-13
-1.96939e-14
1.41677e-09
-6.22265e-14
-5.87877e-14
1.417e-09
1.66597e-13
3.75143e-14
1.41716e-09
1.28217e-13
5.96776e-13
1.41561e-09
-1.15153e-12
-4.37144e-13
1.41586e-09
4.87745e-13
-2.28184e-13
1.41592e-09
-1.60918e-13
1.7028e-13
1.41598e-09
-1.45559e-13
-6.63714e-15
1.41603e-09
1.8021e-13
-7.24144e-13
1.41745e-09
4.40443e-13
1.60598e-12
1.41704e-09
-4.43713e-14
6.75367e-14
1.41686e-09
-7.19121e-14
5.93592e-13
1.41619e-09
-8.6457e-15
1.29418e-12
1.4162e-09
1.44442e-13
-3.42485e-13
1.41661e-09
8.72435e-14
-1.03563e-12
-2.1821e-13
1.22475e-12
-1.24298e-09
-7.26532e-10
1.44033e-09
7.79535e-11
2.56842e-09
-7.48511e-09
2.00125e-09
2.42219e-09
2.2121e-09
2.77188e-10
6.45765e-10
4.91346e-10
5.12278e-10
2.22254e-09
-8.31152e-10
-5.8927e-09
-1.64331e-09
8.57459e-10
-1.79251e-09
-5.51849e-10
-2.08549e-09
2.72458e-10
-1.52746e-09
2.37444e-09
3.37412e-09
2.17155e-11
1.10287e-09
-3.27008e-11
-7.11608e-10
-3.80274e-10
4.88295e-11
-4.37406e-11
1.67871e-10
1.16551e-10
-2.89511e-10
-1.06319e-10
-9.01893e-12
-3.68121e-11
5.13647e-11
1.00785e-10
-3.9095e-11
2.05441e-10
1.73517e-11
-3.55795e-11
-7.29702e-11
-6.48615e-11
1.51253e-12
-1.69541e-12
-3.84446e-12
-4.14716e-12
-2.1128e-12
1.41062e-09
-1.87403e-11
-2.66628e-11
-2.54865e-10
-2.59628e-10
-4.18557e-10
-4.37655e-10
1.41442e-09
-4.48273e-12
-2.04938e-12
1.41559e-09
-3.23836e-12
3.96503e-13
1.41629e-09
-1.55415e-12
-6.0067e-14
1.41663e-09
-1.0003e-12
2.33907e-14
1.41666e-09
-6.64693e-13
4.15577e-15
1.41661e-09
-4.91243e-13
1.68436e-14
1.41718e-09
-3.33076e-13
7.56637e-14
1.41692e-09
2.8124e-13
-3.24183e-13
1.41648e-09
-2.18841e-12
1.31558e-12
1.41669e-09
9.85223e-13
2.46217e-13
1.41676e-09
-3.62895e-13
-1.56228e-13
1.41727e-09
-3.86244e-13
-8.29231e-14
1.41782e-09
-4.45752e-13
-1.88434e-14
1.41598e-09
4.14666e-13
9.75639e-13
1.4158e-09
-3.63024e-13
1.33801e-12
1.41623e-09
-2.79151e-13
-2.82096e-14
1.41642e-09
-1.49982e-13
8.16124e-14
1.41614e-09
7.96015e-14
2.18498e-13
1.41532e-09
2.45382e-14
2.95636e-13
1.41732e-09
1.31517e-12
-5.28423e-12
1.41749e-09
1.16558e-12
-1.8469e-12
1.41722e-09
5.95234e-13
-4.95253e-14
1.41816e-09
7.6286e-13
-1.04529e-12
1.41635e-09
-1.79341e-13
-2.78773e-12
1.416e-09
2.08606e-13
-3.12642e-12
1.41646e-09
6.5731e-13
-3.23463e-13
1.41653e-09
-1.86892e-13
4.88202e-14
1.41672e-09
1.97831e-14
-5.09039e-14
1.41664e-09
-1.60836e-13
3.62726e-13
1.41647e-09
-5.46882e-13
-4.42602e-13
1.4157e-09
-9.20149e-13
2.17196e-12
1.41571e-09
2.96789e-13
-4.72342e-13
1.41583e-09
-4.43637e-13
1.75711e-13
1.41683e-09
-2.46862e-12
1.64904e-12
1.41712e-09
6.53661e-13
-5.03116e-13
1.41689e-09
-4.18889e-14
2.1971e-13
1.41673e-09
-2.05819e-14
1.14683e-13
1.41659e-09
1.90731e-13
-6.11487e-14
1.41627e-09
5.37639e-13
-7.51162e-14
1.41605e-09
2.55301e-13
4.78766e-14
-1.75457e-12
7.39805e-13
2.0114e-10
-5.6245e-09
-4.70005e-09
1.01484e-08
-4.17429e-09
2.5479e-10
-7.4621e-11
6.56258e-09
-1.85665e-09
-6.15252e-10
1.08987e-09
5.50896e-10
-2.72148e-09
2.41843e-09
2.74349e-09
1.442e-09
-3.88243e-09
-7.4448e-10
2.22991e-10
-3.26881e-09
9.45856e-10
2.84444e-09
4.74377e-10
-2.51626e-09
1.28277e-09
-1.85555e-11
7.77676e-10
-2.2007e-10
-4.75588e-11
1.97606e-10
1.25782e-10
-1.33766e-10
-1.84942e-10
-9.32518e-11
-5.48564e-11
-5.36287e-11
-6.0818e-11
1.45683e-10
1.12841e-10
1.39178e-10
1.27804e-10
-1.12312e-10
3.0323e-12
-9.3944e-12
8.79883e-11
3.06857e-11
1.42855e-09
-1.21657e-11
-2.9281e-11
-2.56638e-10
-2.67435e-10
-4.28213e-10
-4.53567e-10
1.42212e-09
4.19287e-12
-2.26078e-12
1.41943e-09
-8.53092e-13
2.9832e-13
1.41771e-09
4.26662e-13
-2.77589e-13
1.41727e-09
-5.98226e-13
8.97055e-15
1.41703e-09
-4.50783e-13
3.73463e-15
1.41686e-09
-3.59217e-13
1.21231e-14
1.4167e-09
-2.25481e-13
2.08536e-14
1.4169e-09
-1.48801e-13
2.04725e-13
1.41649e-09
5.51003e-14
-1.86036e-12
1.4172e-09
1.28728e-13
1.20975e-13
1.41704e-09
-2.50995e-13
2.94367e-14
1.41688e-09
-3.48294e-13
9.64291e-14
1.4165e-09
-6.13069e-14
-2.3432e-14
1.41721e-09
-2.65866e-17
-3.15352e-13
1.41689e-09
1.03368e-13
-1.72787e-13
1.41651e-09
7.85484e-15
7.74157e-14
1.41645e-09
-4.21535e-14
-7.09803e-14
1.41655e-09
8.54053e-14
-1.20558e-13
1.41694e-09
9.28395e-13
-1.31184e-12
1.41747e-09
1.15673e-12
-3.95832e-13
1.41649e-09
2.22676e-13
1.91188e-12
1.41662e-09
5.12071e-13
-6.14773e-14
1.41629e-09
-8.87767e-13
1.97287e-12
1.41629e-09
-2.2187e-13
2.49297e-14
1.41647e-09
-5.27249e-14
7.54226e-14
1.41668e-09
3.14297e-13
1.17951e-13
1.41656e-09
-1.12774e-13
3.91732e-14
1.41655e-09
1.01605e-13
-7.75117e-14
1.41644e-09
-1.34506e-14
-4.25247e-14
1.4158e-09
-3.21711e-13
4.13623e-13
1.41642e-09
1.13376e-12
-2.68061e-12
1.41654e-09
-1.15567e-13
2.8997e-13
1.41686e-09
1.15122e-13
-8.8898e-13
1.41668e-09
-1.11387e-12
-1.17669e-12
1.41654e-09
1.15101e-13
6.83396e-13
1.4167e-09
9.02851e-14
-2.94815e-13
1.41683e-09
-9.36775e-15
-1.4696e-13
1.41691e-09
1.41942e-12
-1.30974e-12
1.41578e-09
1.69187e-12
-1.88127e-14
1.41607e-09
-9.69215e-15
-2.97757e-14
-1.98909e-12
4.71732e-13
-3.40467e-09
2.33079e-08
3.80284e-09
-1.91607e-08
1.92439e-08
-4.61237e-09
-1.70023e-09
-3.71681e-09
-3.74393e-09
-2.22578e-09
-7.86994e-11
-2.22356e-09
-1.14734e-09
-2.32249e-10
-1.37267e-10
-3.73604e-09
-5.17871e-09
-1.34877e-09
-1.07943e-09
-2.32747e-09
4.18554e-10
-1.61439e-09
4.57863e-09
3.74203e-09
2.4461e-09
-2.10523e-09
1.86267e-08
5.4325e-08
-4.31875e-08
-2.73003e-08
-3.34167e-09
-5.13795e-10
9.66144e-09
-4.92809e-09
-8.77882e-10
-7.25466e-09
-5.86586e-10
4.67306e-09
4.64302e-09
-1.47484e-09
2.82089e-10
-9.1337e-10
1.08656e-10
-6.70091e-10
1.19272e-09
-2.27322e-10
-1.99204e-09
4.76281e-10
-4.73528e-12
1.74782e-09
2.30393e-11
-3.43195e-11
-1.07996e-10
-1.73204e-10
1.66185e-12
9.82724e-11
1.6508e-11
3.57814e-11
4.88684e-11
3.40957e-11
5.72941e-11
-1.00117e-10
5.79801e-12
-3.01212e-12
-3.85346e-12
1.01185e-10
1.41503e-09
2.57763e-12
-3.53307e-11
-2.4877e-10
-2.56296e-10
-4.34304e-10
-4.55074e-10
1.41806e-09
5.2354e-13
6.33109e-13
1.41764e-09
-4.32179e-13
-1.42656e-14
1.4178e-09
2.86915e-13
-4.14391e-14
1.41761e-09
-3.8804e-15
-4.2713e-13
1.41741e-09
-2.83686e-13
7.0162e-15
1.41714e-09
5.72376e-14
-1.74885e-13
1.417e-09
-7.82102e-14
-2.49319e-14
1.41669e-09
4.72927e-14
8.89311e-14
1.41646e-09
2.40941e-13
1.96444e-14
1.41611e-09
3.72502e-13
8.14066e-14
1.41766e-09
1.5358e-12
-3.35524e-12
1.41696e-09
3.22431e-13
5.27901e-15
1.41701e-09
-4.57992e-13
3.22076e-13
1.41703e-09
1.87281e-13
-2.3362e-13
1.41694e-09
-8.08397e-15
1.80946e-13
1.41696e-09
-1.13541e-13
8.11606e-14
1.41705e-09
-2.14407e-13
6.60707e-14
1.41707e-09
1.79781e-14
2.83769e-14
1.4168e-09
1.56947e-13
1.02699e-12
1.41626e-09
3.87961e-13
1.28834e-12
1.41648e-09
2.15062e-13
-2.27424e-13
1.41705e-09
2.74736e-14
-1.01084e-13
1.41617e-09
-7.15757e-13
6.94955e-13
1.41627e-09
-3.17665e-13
-1.02486e-14
1.4164e-09
-1.90744e-13
-4.10011e-16
1.4165e-09
4.88499e-13
-2.90944e-13
1.41661e-09
-2.2968e-13
4.5653e-15
1.4162e-09
1.36012e-12
-8.55642e-13
1.41578e-09
1.11281e-12
-7.19765e-13
1.41604e-09
-2.17227e-13
-3.59895e-13
1.41668e-09
-4.48869e-14
5.28378e-13
1.4166e-09
-5.10982e-13
4.71557e-13
1.41725e-09
-2.01347e-12
1.47498e-12
1.41607e-09
1.76158e-13
-1.08391e-13
1.41653e-09
-5.09192e-13
1.55071e-13
1.41679e-09
-1.14576e-13
-5.36348e-14
1.41716e-09
-4.40874e-13
6.59579e-14
1.41722e-09
-1.32249e-12
2.67556e-12
1.41577e-09
3.49531e-12
-3.56544e-13
1.41605e-09
-8.68484e-13
5.78814e-13
-1.81021e-13
-9.55036e-13
-6.06007e-10
-1.44105e-07
-3.96415e-09
1.0652e-07
5.01524e-08
2.03405e-10
1.61592e-09
-6.94128e-11
-6.97073e-09
-8.55722e-10
-2.84648e-10
-6.98689e-09
1.09707e-09
1.56571e-09
3.80699e-09
-8.66461e-10
2.25389e-09
-2.38811e-10
-1.10465e-09
1.29836e-09
-2.20879e-09
1.99753e-09
-1.68639e-09
3.80702e-10
-2.84003e-09
2.55536e-10
4.62838e-10
1.54877e-09
-1.22525e-08
1.2958e-08
2.20075e-08
-2.28286e-08
-5.76583e-11
1.34991e-09
5.95656e-10
-2.66203e-10
-1.62171e-09
-1.30062e-10
6.00205e-10
3.78752e-11
-3.46538e-10
-1.61478e-10
-2.98002e-11
-1.04642e-09
-1.24849e-10
2.5647e-10
9.44595e-10
-5.88459e-11
1.22324e-10
-2.34672e-10
2.65301e-11
-6.26231e-11
-1.04076e-10
-1.18281e-10
1.08086e-10
1.04263e-10
1.13549e-10
1.03747e-10
-8.96513e-11
-6.59866e-13
-4.95019e-13
-3.12192e-11
1.22025e-10
1.40831e-09
2.62881e-12
-3.42586e-11
-2.54833e-10
-2.44478e-10
-4.50804e-10
-4.23988e-10
1.41598e-09
-7.72278e-12
5.76122e-13
1.41712e-09
-1.62631e-12
3.47461e-14
1.41789e-09
-7.9341e-13
2.91903e-13
1.41771e-09
-4.0757e-13
5.63454e-13
1.41741e-09
-5.68794e-14
4.68933e-14
1.41732e-09
-3.93415e-14
1.54232e-13
1.41712e-09
8.72541e-14
2.03288e-14
1.41701e-09
1.35575e-13
-3.40898e-15
1.41726e-09
8.08678e-13
-8.37604e-13
1.41752e-09
1.38619e-13
-5.17984e-14
1.41588e-09
-2.61354e-13
3.41112e-12
1.41732e-09
1.10938e-12
-2.24666e-12
1.41681e-09
3.58941e-13
-3.26817e-13
1.41673e-09
2.01574e-13
3.51875e-14
1.41654e-09
4.05015e-13
-2.39034e-13
1.41651e-09
-1.2947e-14
-8.7844e-14
1.41715e-09
8.53536e-13
-1.7328e-12
1.41712e-09
2.15612e-13
-1.79503e-13
1.41711e-09
2.44765e-13
-9.97565e-14
1.41677e-09
9.46026e-13
-2.33671e-13
1.41595e-09
2.65062e-12
-1.62969e-12
1.41568e-09
-6.66258e-13
9.48419e-13
1.41676e-09
-2.41936e-13
-1.56725e-12
1.41655e-09
1.05631e-14
-1.24593e-13
1.41644e-09
1.93176e-13
-2.89176e-13
1.41617e-09
1.01641e-12
-2.70798e-13
1.41606e-09
-1.2541e-13
4.24596e-15
1.41643e-09
9.54257e-14
8.87e-13
1.41655e-09
3.74142e-13
6.11758e-13
1.41625e-09
-6.54446e-13
7.27304e-13
1.41707e-09
-6.64215e-13
-1.98536e-13
1.41724e-09
3.51844e-13
-1.03575e-12
1.4162e-09
-2.71621e-13
-7.0936e-13
1.41659e-09
-1.70963e-13
-4.5587e-14
1.41601e-09
2.32918e-13
-1.62028e-13
1.41594e-09
-1.63848e-13
1.16104e-13
1.41574e-09
-1.39037e-13
-1.01906e-13
1.41572e-09
1.25868e-12
-2.55993e-12
1.41772e-09
1.11954e-12
3.74603e-13
1.41744e-09
-4.70609e-13
-1.19083e-13
-8.42182e-13
1.9603e-12
-4.30033e-09
1.6469e-09
-1.5246e-09
9.6501e-08
-3.3994e-08
1.37944e-09
-5.12767e-08
-4.14003e-10
-5.08399e-09
-2.75619e-09
3.13624e-10
-1.29363e-09
2.43352e-09
-1.07283e-08
9.5747e-10
-4.96568e-10
1.74065e-09
7.0732e-09
4.36014e-09
3.59796e-09
-8.46471e-09
1.26732e-10
3.7988e-10
-3.80506e-09
-9.86743e-10
5.42047e-10
8.59776e-10
1.17214e-09
8.19529e-10
4.25362e-10
9.7294e-10
2.02163e-09
1.2616e-09
-8.65194e-10
-2.08617e-09
-3.31865e-10
2.78652e-10
7.30801e-10
1.2864e-11
-2.52963e-10
-7.69355e-10
-1.1366e-10
3.23755e-10
-1.61027e-10
-1.10818e-09
2.86846e-11
5.91933e-10
4.43347e-11
7.47886e-11
1.18981e-10
1.07306e-10
9.30836e-11
-1.80192e-10
-4.40351e-12
1.06784e-11
1.23884e-10
5.00326e-11
1.43251e-09
1.13897e-11
-2.84194e-11
-2.68713e-10
-2.59252e-10
-4.52872e-10
-4.32008e-10
1.42504e-09
1.78085e-12
-2.03815e-12
1.42109e-09
2.08447e-12
2.28929e-13
1.41922e-09
1.16037e-12
-1.05998e-13
1.41818e-09
7.0252e-13
-9.78014e-14
1.41771e-09
4.01927e-13
-9.85711e-15
1.41736e-09
2.98929e-13
-1.55434e-14
1.41722e-09
1.94544e-13
5.82167e-15
1.41715e-09
1.84062e-13
-5.74357e-16
1.41688e-09
1.77416e-13
8.79334e-13
1.4174e-09
-5.01175e-13
9.70208e-14
1.4173e-09
-2.18062e-13
3.59561e-14
1.41629e-09
-1.4644e-13
2.24412e-12
1.41661e-09
2.43395e-16
1.63428e-14
1.41676e-09
5.82818e-15
1.96234e-14
1.41694e-09
1.23809e-14
1.88424e-13
1.41688e-09
1.19982e-13
-9.20264e-14
1.41635e-09
-3.36148e-13
1.70622e-12
1.41682e-09
-4.42633e-13
1.67012e-13
1.41765e-09
-6.63853e-13
5.75941e-14
1.41523e-09
8.12477e-12
-4.77216e-12
1.41585e-09
1.32978e-12
6.90117e-13
1.41645e-09
-4.70465e-13
-8.10573e-13
1.4165e-09
-1.58364e-13
-1.47377e-13
1.41652e-09
-1.14436e-13
9.76175e-14
1.41649e-09
-9.20144e-14
2.99966e-13
1.41663e-09
7.05467e-14
7.97979e-13
1.41659e-09
1.64195e-14
-1.14223e-13
1.41663e-09
2.37965e-14
2.55448e-14
1.41655e-09
9.18454e-13
-4.67191e-13
1.41643e-09
1.33025e-13
-6.77615e-13
1.41674e-09
4.89761e-13
-1.46189e-12
1.41643e-09
1.23064e-13
5.31105e-13
1.41626e-09
-7.65515e-14
-2.72219e-14
1.41617e-09
-3.27865e-14
-4.93129e-14
1.41629e-09
3.01587e-13
-1.92978e-13
1.41619e-09
-7.37289e-14
1.22003e-14
1.41595e-09
1.18492e-13
-2.17948e-14
1.41635e-09
-8.76643e-13
1.73475e-12
1.41675e-09
6.7378e-13
4.31328e-14
1.41695e-09
-1.07912e-13
-5.5988e-13
-1.72936e-13
-1.44355e-12
2.97306e-10
-1.44657e-09
-1.65107e-08
1.20749e-09
3.57168e-09
4.63102e-09
2.21947e-09
1.95371e-09
4.69124e-09
7.74362e-10
-1.54361e-09
3.34283e-09
1.1999e-09
-2.70186e-09
-2.15971e-09
2.03039e-09
-8.54991e-10
-6.81912e-10
-7.0067e-10
-1.4614e-09
2.18156e-09
5.46321e-10
2.3251e-10
2.01391e-10
6.66458e-10
-1.18394e-09
-2.56166e-09
-3.2725e-09
8.42273e-09
-1.40463e-09
-4.31571e-12
6.89324e-10
1.96424e-10
-9.25277e-11
-7.88897e-10
1.5641e-10
7.44137e-11
5.0275e-10
7.01086e-11
-8.03686e-10
-1.84667e-10
1.38517e-11
2.21513e-12
3.07032e-11
1.379e-10
-5.41458e-11
-3.57458e-12
1.63991e-12
2.62664e-11
2.98141e-11
1.42043e-09
1.04447e-11
-2.78796e-11
-2.65348e-10
-2.56536e-10
-4.48465e-10
-4.21256e-10
1.4196e-09
4.4684e-12
-1.8675e-12
1.41835e-09
2.90027e-12
4.25665e-13
1.41779e-09
1.75756e-12
-5.64735e-14
1.41735e-09
1.09197e-12
2.31561e-14
1.41714e-09
5.77627e-13
2.03913e-15
1.4173e-09
-8.79812e-13
9.85951e-13
1.41724e-09
2.09953e-13
2.10586e-14
1.41718e-09
8.58137e-13
-6.36857e-13
1.41714e-09
3.73097e-13
-1.73478e-13
1.41654e-09
5.1308e-13
-4.40911e-13
1.417e-09
-5.81628e-13
-1.15158e-13
1.41683e-09
-2.26237e-14
2.02043e-14
1.41674e-09
1.05745e-13
-3.4921e-14
1.41666e-09
-4.89444e-13
5.47468e-13
1.41675e-09
-1.11476e-13
1.80262e-14
1.41657e-09
1.21468e-13
1.55038e-13
1.4163e-09
-4.29417e-13
3.43823e-13
1.41597e-09
-1.23149e-14
-1.16126e-13
1.41446e-09
9.23063e-13
-9.79323e-14
1.41717e-09
3.5122e-13
5.0521e-12
1.41738e-09
9.16416e-13
1.85856e-13
1.41727e-09
-3.30122e-12
2.92395e-12
1.41681e-09
1.85846e-13
1.01686e-13
1.41664e-09
-7.99784e-14
1.28212e-13
1.41643e-09
1.41528e-13
-3.94106e-14
1.41668e-09
-1.81975e-13
-6.838e-16
1.4166e-09
-4.61177e-13
5.51853e-13
1.41656e-09
-3.79695e-13
4.28256e-13
1.41662e-09
5.86668e-13
2.68097e-13
1.41705e-09
-2.61104e-13
-3.47598e-14
1.41639e-09
-4.29393e-13
1.57085e-12
1.41644e-09
-1.91316e-13
2.6317e-13
1.41618e-09
3.66236e-13
-1.89022e-13
1.41622e-09
-7.72616e-14
2.26896e-16
1.41631e-09
8.63113e-14
1.22933e-13
1.41612e-09
1.47943e-13
-3.25927e-14
1.41567e-09
5.31683e-13
3.57665e-14
1.41633e-09
-1.34722e-12
-1.85624e-13
1.4162e-09
5.49617e-13
2.48667e-13
1.41741e-09
-2.88797e-12
1.57202e-12
-3.00191e-13
-5.14614e-13
1.52945e-08
4.52881e-09
-1.9881e-08
-7.55037e-10
-4.43562e-09
-1.94946e-09
-2.34631e-10
-1.36974e-09
-7.98941e-10
2.53444e-08
8.92292e-09
-7.98433e-09
-1.54387e-11
-3.11671e-09
1.19813e-09
4.8943e-10
4.14931e-10
-1.75992e-09
-8.28173e-10
4.29744e-10
1.68822e-10
4.34104e-10
4.80434e-10
2.58203e-11
-8.0566e-10
6.84848e-10
-1.21861e-10
-5.20429e-09
1.85595e-09
1.25703e-09
-1.06343e-10
-1.39936e-09
-4.49078e-10
1.29219e-09
1.41409e-10
1.96433e-09
7.70044e-10
1.11851e-10
2.12679e-10
8.04486e-10
-1.1213e-10
-1.01688e-09
2.67401e-10
3.67412e-10
4.53338e-10
-3.05252e-10
-7.82898e-10
-4.25385e-11
7.88178e-12
-2.88782e-11
1.66073e-11
4.69277e-11
-3.77543e-11
-1.7173e-12
1.93189e-10
3.77534e-12
1.38439e-11
-3.52964e-11
-7.06809e-11
-6.53597e-11
1.41723e-09
6.10438e-12
-2.70448e-11
-2.61122e-10
-2.60895e-10
-4.32846e-10
-4.30987e-10
1.41729e-09
6.92085e-12
-2.54524e-12
1.41689e-09
2.96132e-12
3.21427e-13
1.41682e-09
1.93548e-12
-1.20472e-13
1.4166e-09
1.30273e-12
-1.08828e-14
1.41692e-09
2.23122e-13
9.77506e-15
1.41674e-09
2.10089e-13
-9.4767e-13
1.41684e-09
-1.33403e-13
2.23776e-13
1.41708e-09
-1.2245e-13
7.12337e-13
1.41703e-09
3.30861e-13
5.99753e-14
1.41684e-09
2.27884e-13
4.50453e-13
1.41668e-09
5.88339e-13
-1.0282e-12
1.41657e-09
5.17045e-14
1.1501e-14
1.41651e-09
-1.98341e-13
3.39077e-13
1.41672e-09
-1.91417e-13
-5.31181e-13
1.41652e-09
1.1329e-13
-3.94646e-14
1.41662e-09
1.13958e-13
-1.18812e-13
1.41672e-09
-1.79442e-13
-3.62142e-13
1.41622e-09
8.19653e-13
-3.56567e-13
1.41696e-09
1.09736e-13
5.82656e-14
1.41688e-09
4.2695e-13
-1.20122e-14
1.41684e-09
2.41275e-13
7.03667e-13
1.41641e-09
1.02375e-14
-2.898e-12
1.41661e-09
2.18035e-13
-2.48088e-13
1.4167e-09
1.12918e-12
-1.30399e-12
1.41605e-09
-1.37348e-13
9.12172e-13
1.41591e-09
8.30579e-14
-1.35267e-13
1.41649e-09
5.85915e-13
-1.63019e-12
1.4166e-09
-1.17085e-12
6.73179e-13
1.41708e-09
-1.79824e-13
2.80931e-13
1.41665e-09
8.16191e-13
-6.55238e-13
1.4166e-09
-3.07338e-13
-7.47048e-14
1.41666e-09
-2.79513e-13
2.16498e-14
1.4164e-09
1.87144e-12
-1.242e-12
1.41636e-09
-1.62056e-14
-2.77785e-14
1.4162e-09
-4.0381e-14
2.87287e-13
1.41653e-09
3.12969e-13
-4.997e-13
1.41695e-09
-1.28202e-13
2.35171e-13
1.41597e-09
-2.94537e-13
-6.69355e-14
1.41616e-09
4.97291e-13
-1.41104e-13
1.41612e-09
1.05467e-12
-3.90083e-12
-1.74659e-12
-4.71885e-14
9.16213e-09
-5.15513e-09
1.93957e-09
1.79674e-09
-6.40105e-10
2.00806e-08
-1.76738e-08
-6.31235e-09
1.26123e-08
-1.26115e-09
-4.25974e-09
-1.85045e-09
-4.78155e-09
4.16946e-10
2.95332e-08
5.98501e-10
1.71073e-11
4.05401e-10
-2.95251e-08
-9.70133e-10
8.28112e-11
-6.73834e-10
-1.49714e-09
-7.96743e-10
-6.06621e-10
1.2721e-09
1.48245e-09
6.87477e-10
-3.02506e-09
-3.81281e-10
-8.26673e-10
1.12019e-10
4.51238e-10
6.44699e-10
-5.49187e-11
4.38833e-11
-1.42361e-11
-9.39302e-11
1.19202e-10
-3.47602e-11
-5.11536e-12
1.87169e-10
-2.21649e-12
1.28768e-11
-3.40185e-11
-6.27695e-11
-6.11668e-11
1.39681e-09
-2.62411e-11
-2.53623e-10
-2.51197e-10
-4.18743e-10
-4.21055e-10
1.40841e-09
-1.53555e-12
1.41285e-09
5.54457e-13
1.41464e-09
1.29446e-16
1.41508e-09
1.12257e-13
1.4168e-09
3.49932e-13
1.41704e-09
-9.97811e-14
1.41687e-09
-2.94822e-13
1.41672e-09
-1.03294e-13
1.41677e-09
-6.18564e-14
1.41735e-09
-4.88824e-14
1.41636e-09
2.46916e-13
1.41625e-09
-4.31109e-13
1.41652e-09
-5.12334e-13
1.41654e-09
-1.36107e-13
1.41681e-09
3.9155e-14
1.4167e-09
1.97045e-14
1.41634e-09
-9.64301e-14
1.41661e-09
5.51203e-13
1.41656e-09
1.16633e-14
1.41695e-09
1.36367e-12
1.41688e-09
-3.27964e-13
1.41672e-09
-1.94749e-12
1.41587e-09
-1.13108e-12
1.41599e-09
1.62144e-12
1.41664e-09
-7.0193e-13
1.41661e-09
7.25304e-14
1.41651e-09
4.97119e-13
1.41638e-09
-1.00723e-12
1.41638e-09
-3.08964e-14
1.41699e-09
6.81235e-13
1.41668e-09
1.25745e-13
1.41664e-09
-2.17871e-13
1.41724e-09
1.61286e-12
1.41621e-09
-9.1021e-13
1.41638e-09
-4.86122e-13
1.41629e-09
4.89319e-13
1.4166e-09
-2.39324e-13
1.41668e-09
-2.33154e-13
1.41734e-09
-2.10891e-13
1.4161e-09
2.50937e-12
1.09781e-13
-6.7301e-09
-1.51542e-09
1.88835e-08
-6.74835e-09
3.46399e-09
-8.44897e-09
9.36249e-10
-3.75185e-09
8.24668e-09
2.83278e-09
8.81779e-10
3.00347e-09
1.21164e-09
1.84105e-09
4.53212e-09
3.49134e-10
2.50136e-09
-2.45933e-09
-3.06487e-09
-1.16197e-09
-4.03375e-10
-8.29446e-10
8.28332e-10
-3.55682e-11
5.51832e-11
-9.16294e-11
-1.24155e-11
-1.04935e-12
4.12203e-12
1.03858e-10
2.42729e-09
1.55789e-12
3.77923e-11
-6.11979e-10
-6.26838e-10
-6.12032e-10
-6.27656e-10
-8.58096e-12
1.56204e-12
-8.57104e-12
2.37051e-09
2.42095e-11
9.72626e-13
2.3628e-09
2.22685e-13
9.20141e-13
2.35824e-09
7.98534e-13
3.07904e-14
2.35823e-09
-3.43244e-13
-1.10536e-13
2.35941e-09
-4.29741e-13
-2.31094e-13
2.35794e-09
-7.93189e-13
5.6242e-13
2.35812e-09
-4.01728e-13
2.23197e-13
2.35878e-09
-1.71627e-14
-2.27475e-13
2.35886e-09
-1.32105e-13
4.99193e-14
2.35907e-09
-2.53751e-13
5.34575e-13
2.35829e-09
4.01892e-13
1.93551e-13
2.359e-09
1.64319e-14
1.45133e-12
2.35909e-09
6.46901e-14
-5.04478e-13
2.35866e-09
1.3288e-13
2.87714e-13
2.35913e-09
-2.84463e-12
1.13569e-12
2.3592e-09
-3.18276e-13
-4.43846e-14
2.35925e-09
1.83897e-13
-6.35519e-15
2.35918e-09
1.99041e-13
-1.32448e-13
2.35905e-09
2.0244e-13
-3.80345e-14
2.35938e-09
-1.42991e-13
-3.92676e-14
2.35834e-09
5.7915e-13
-4.92648e-13
2.35865e-09
3.19977e-13
-3.38152e-14
2.35747e-09
6.07533e-12
-1.60539e-12
2.35736e-09
4.87766e-12
-2.98531e-12
2.35854e-09
-3.65034e-12
1.14286e-13
2.36e-09
1.22458e-12
-1.0369e-12
2.35941e-09
6.46064e-13
-3.05412e-15
2.3583e-09
2.83996e-13
-7.24352e-13
2.35749e-09
6.63986e-13
6.47065e-14
2.35732e-09
-1.74443e-12
8.7007e-13
2.35999e-09
-6.47202e-13
-1.82856e-12
2.35913e-09
9.87015e-13
-1.12438e-13
2.35878e-09
2.87041e-13
2.00827e-14
2.35879e-09
-1.29256e-13
-6.20576e-13
2.36034e-09
-8.20706e-13
-8.61923e-13
2.35787e-09
3.927e-12
-3.23432e-12
2.35837e-09
-6.27612e-13
-4.50318e-15
2.35829e-09
-1.44578e-12
3.57967e-13
2.35906e-09
-1.49664e-12
-6.90491e-13
2.35877e-09
2.64378e-13
3.34963e-13
2.35769e-09
8.24548e-13
1.00088e-12
-6.07457e-13
-4.43317e-13
5.24645e-09
-9.03183e-09
8.27613e-09
6.573e-09
6.11603e-09
-2.10186e-09
8.05732e-09
-5.2782e-09
2.5007e-09
1.71821e-09
1.18899e-09
2.11083e-09
1.55416e-09
2.54932e-09
-6.44664e-10
-9.40797e-10
-1.99737e-09
-2.12424e-10
-2.41009e-09
-8.98747e-10
2.31615e-09
-5.53439e-10
3.60132e-09
1.92997e-10
1.54527e-09
3.07278e-10
-3.92866e-09
-1.90893e-10
1.84171e-10
-1.87543e-10
1.15474e-10
-1.16031e-10
1.94821e-10
-9.31013e-11
1.88594e-10
1.71889e-11
-5.6031e-11
-1.70764e-10
1.14114e-10
-1.44559e-10
6.01643e-10
-4.49938e-12
4.61316e-13
-1.80541e-12
-1.47078e-10
-1.50004e-10
-1.52604e-10
2.34384e-09
-1.33377e-11
2.29846e-11
-5.80736e-10
-5.95444e-10
-5.80734e-10
-5.9546e-10
2.34726e-09
-7.78885e-12
2.24106e-12
2.35394e-09
-4.83485e-12
-5.57956e-13
2.35632e-09
-2.85025e-12
4.56074e-14
2.35789e-09
-1.89198e-12
-6.72858e-14
2.35855e-09
-1.51004e-12
2.40699e-14
2.3592e-09
-1.13853e-12
9.30508e-15
2.35832e-09
7.17412e-14
4.02959e-13
2.35884e-09
-6.07759e-13
1.18054e-14
2.35968e-09
-9.33863e-16
-6.10765e-13
2.35838e-09
1.23123e-12
-4.21803e-13
2.35872e-09
-3.24604e-13
1.63699e-13
2.35863e-09
8.54701e-14
1.62124e-14
2.35842e-09
1.49787e-13
1.43061e-13
2.35884e-09
-3.95758e-12
9.50867e-13
2.35941e-09
-3.62222e-12
1.35934e-12
2.35915e-09
3.30802e-13
8.18784e-14
2.35906e-09
1.53579e-13
5.54917e-14
2.35942e-09
4.91414e-14
-3.89388e-13
2.35983e-09
-4.82816e-13
-1.52729e-14
2.35693e-09
5.50068e-12
2.58344e-12
2.35712e-09
-7.16742e-13
6.50002e-13
2.35849e-09
5.41635e-13
2.20422e-12
2.35891e-09
9.96988e-13
1.73528e-12
2.36013e-09
-3.40119e-12
2.47502e-12
2.35947e-09
1.33058e-12
1.99465e-12
2.35877e-09
1.20622e-12
1.01375e-13
2.35897e-09
-4.88361e-14
5.6597e-14
2.35941e-09
2.99596e-13
-5.27564e-14
2.35959e-09
-5.26412e-13
-8.11192e-13
2.35736e-09
-7.6348e-13
1.8953e-12
2.35737e-09
6.93271e-13
4.48284e-14
2.35749e-09
4.14357e-13
-8.16307e-14
2.35756e-09
-1.48143e-13
-6.34548e-14
2.35797e-09
-5.86705e-13
-1.3778e-12
2.35993e-09
4.1465e-13
3.15652e-12
2.35933e-09
2.91299e-14
7.98401e-15
2.35909e-09
-9.5096e-15
-6.0187e-13
2.35814e-09
8.64142e-14
6.57168e-13
2.35805e-09
3.98469e-13
-3.86826e-13
2.35861e-09
1.0815e-13
-8.8676e-13
-3.26291e-13
2.12473e-13
-1.37816e-09
-6.43399e-09
2.72203e-09
1.39199e-09
-6.95018e-09
-7.3894e-10
8.88657e-10
1.12588e-08
2.61532e-10
-2.51972e-09
1.71127e-09
-1.02391e-08
3.50111e-09
6.67229e-10
1.42646e-09
-4.98979e-09
-2.77527e-10
5.99059e-10
-1.72157e-10
1.93462e-09
-2.19636e-09
-4.22618e-09
-1.74203e-09
-1.06591e-09
-2.68289e-09
-8.57009e-10
2.69143e-09
-2.35882e-09
-4.5143e-09
7.22273e-10
2.57084e-09
4.34482e-09
4.26497e-09
7.96481e-11
3.72583e-09
-6.1906e-11
9.87562e-10
-5.87445e-09
4.26275e-09
-5.58636e-09
2.85589e-10
-7.02014e-10
-6.47504e-10
-7.32046e-10
1.6525e-09
-8.54303e-11
4.34764e-10
9.40688e-11
1.66051e-10
-2.26196e-09
-7.4643e-11
-2.28366e-11
-8.53587e-11
3.75917e-11
2.80867e-11
1.1716e-10
-1.52318e-10
6.08885e-10
3.49002e-12
-2.92725e-11
-1.22084e-10
-1.57156e-10
-1.23984e-10
1.01714e-11
-9.02164e-12
-9.39608e-12
-9.87483e-12
-9.44148e-12
2.35646e-09
-3.58592e-11
2.71357e-11
-5.83898e-10
-6.09992e-10
-5.83896e-10
-6.10026e-10
2.35474e-09
-1.01581e-11
1.97666e-12
2.3579e-09
-7.23801e-12
-3.93356e-13
2.35862e-09
-3.74467e-12
7.51574e-14
2.35912e-09
-2.40683e-12
-7.13306e-15
2.35911e-09
-1.55478e-12
1.08517e-14
2.359e-09
-1.07618e-12
-6.88847e-15
2.35987e-09
-7.15558e-13
-6.62086e-14
2.35939e-09
1.07317e-13
-6.25168e-13
2.3589e-09
4.50763e-13
1.28799e-12
2.35899e-09
1.02433e-12
3.0959e-13
2.35925e-09
-6.48221e-13
-1.51117e-13
2.35987e-09
-6.7225e-13
3.36255e-15
2.36068e-09
-7.46488e-13
1.94736e-14
2.35803e-09
1.86513e-12
-2.23947e-12
2.35757e-09
-4.80692e-13
-1.3893e-12
2.35815e-09
-3.3328e-13
4.24233e-15
2.35849e-09
-1.04461e-13
-3.62446e-14
2.35787e-09
4.39228e-13
4.05703e-13
2.35671e-09
1.24383e-12
-3.06729e-13
2.35976e-09
-1.15169e-12
-1.72191e-12
2.36019e-09
-3.82327e-12
8.06809e-13
2.35983e-09
1.161e-12
-3.45206e-13
2.36141e-09
-2.57249e-12
9.22242e-13
2.35871e-09
-2.9072e-14
-3.4877e-12
2.35784e-09
2.48221e-14
-9.6826e-13
2.35852e-09
5.56659e-13
-3.74323e-13
2.35874e-09
-2.16236e-13
-2.19952e-14
2.35889e-09
4.59676e-14
3.9438e-14
2.35885e-09
-1.17765e-13
-1.99911e-14
2.3585e-09
-8.36833e-13
-3.53992e-14
2.3572e-09
3.1798e-12
9.78767e-13
2.3572e-09
-2.76351e-13
2.08025e-13
2.35747e-09
-8.89095e-13
6.41566e-13
2.35897e-09
1.43754e-12
-1.87226e-12
2.35949e-09
1.11547e-12
-1.73745e-12
2.35925e-09
7.4292e-13
-2.50775e-13
2.35905e-09
4.95499e-13
-1.95994e-13
2.35857e-09
3.73576e-13
1.30334e-13
2.35798e-09
8.18958e-13
9.63808e-14
2.35778e-09
4.20383e-13
-6.52262e-14
-2.38885e-12
1.37668e-12
-1.76774e-09
-2.44233e-08
-1.34019e-08
-8.34548e-10
-1.6538e-09
-8.78755e-10
-1.73252e-09
1.27605e-08
2.08416e-08
5.26616e-09
-3.22524e-09
4.32041e-09
3.47261e-10
1.1426e-08
-1.1442e-08
-3.84477e-10
-9.32076e-10
9.59254e-10
-1.12729e-09
-7.11745e-10
-6.75964e-10
1.20404e-09
2.03489e-09
1.59805e-09
-1.68919e-09
-2.47183e-09
-1.59412e-09
1.64512e-09
-2.57837e-10
1.03999e-10
-1.14251e-09
1.24535e-09
-2.82019e-11
3.96556e-10
-3.77641e-09
2.45862e-09
9.37246e-11
8.55716e-10
-3.17862e-10
-1.74391e-11
-3.55484e-12
2.24382e-10
-4.6166e-12
-2.48118e-10
-1.82498e-10
-1.79738e-10
-9.2773e-12
-2.20944e-11
-2.95403e-12
1.98564e-10
1.84003e-10
1.9394e-10
1.87264e-10
-8.88912e-11
-9.10251e-11
3.19465e-12
-1.15857e-12
4.83201e-11
1.2956e-10
2.38872e-09
-2.22078e-11
2.88476e-11
-5.98428e-10
-6.31758e-10
-5.98427e-10
-6.31923e-10
2.36985e-09