/*--------------------------------*- C++ -*----------------------------------*\
| =========                 |                                                 |
| \\      /  F ield         | OpenFOAM: The Open Source CFD Toolbox           |
|  \\    /   O peration     | Version:  5.0                                   |
|   \\  /    A nd           | Web:      www.OpenFOAM.org                      |
|    \\/     M anipulation  |                                                 |
\*---------------------------------------------------------------------------*/
FoamFile
{
    version     2.0;
    format      ascii;
    class       volScalarField;
    location    "4.3";
    object      rAU;
}
// * * * * * * * * * * * * * * * * * * * * * * * * * * * * * * * * * * * * * //

dimensions      [-1 3 1 0 0 0 0];

internalField   nonuniform List<scalar> 
8311
(
9.63942e-07
9.67642e-07
9.46556e-07
9.53805e-07
8.96178e-07
6.85136e-07
7.59046e-08
3.92153e-07
3.93663e-07
3.94697e-07
3.9573e-07
3.96763e-07
3.97794e-07
3.98826e-07
3.99856e-07
4.00886e-07
4.01915e-07
4.02944e-07
4.03971e-07
4.04998e-07
4.06024e-07
4.0705e-07
4.08075e-07
4.09099e-07
4.10122e-07
4.11145e-07
4.12166e-07
4.13187e-07
4.14208e-07
4.15227e-07
4.16246e-07
4.17264e-07
4.18281e-07
4.19297e-07
4.20313e-07
4.21328e-07
4.22342e-07
4.23355e-07
4.24367e-07
4.25379e-07
4.2639e-07
4.274e-07
4.28409e-07
4.29417e-07
4.30425e-07
4.31431e-07
4.32437e-07
4.33442e-07
4.34446e-07
4.36222e-07
9.61544e-07
9.68041e-07
9.68124e-07
9.61053e-07
8.86855e-07
6.81681e-07
1.94597e-07
1.29685e-07
3.93454e-07
3.94697e-07
3.9573e-07
3.96763e-07
3.97794e-07
3.98826e-07
3.99856e-07
4.00886e-07
4.01915e-07
4.02944e-07
4.03971e-07
4.04998e-07
4.06024e-07
4.0705e-07
4.08075e-07
4.09099e-07
4.10122e-07
4.11145e-07
4.12166e-07
4.13187e-07
4.14208e-07
4.15227e-07
4.16246e-07
4.17264e-07
4.18281e-07
4.19297e-07
4.20313e-07
4.21328e-07
4.22342e-07
4.23355e-07
4.24367e-07
4.25379e-07
4.2639e-07
4.274e-07
4.28409e-07
4.29417e-07
4.30425e-07
4.31431e-07
4.32437e-07
4.33442e-07
4.34446e-07
4.36222e-07
8.94049e-07
9.58409e-07
9.53057e-07
8.85003e-07
5.39448e-07
6.91136e-07
6.9918e-07
1.29665e-07
3.93453e-07
3.94697e-07
3.9573e-07
3.96763e-07
3.97794e-07
3.98826e-07
3.99856e-07
4.00886e-07
4.01915e-07
4.02943e-07
4.03971e-07
4.04998e-07
4.06024e-07
4.0705e-07
4.08075e-07
4.09099e-07
4.10122e-07
4.11145e-07
4.12166e-07
4.13187e-07
4.14208e-07
4.15227e-07
4.16246e-07
4.17264e-07
4.18281e-07
4.19297e-07
4.20313e-07
4.21328e-07
4.22342e-07
4.23355e-07
4.24367e-07
4.25379e-07
4.2639e-07
4.274e-07
4.28409e-07
4.29417e-07
4.30425e-07
4.31431e-07
4.32437e-07
4.33442e-07
4.34446e-07
4.36222e-07
6.20972e-07
8.96076e-07
8.71032e-07
8.93408e-07
6.88826e-07
6.42643e-07
9.03198e-07
3.64698e-08
3.93452e-07
3.94696e-07
3.9573e-07
3.96762e-07
3.97794e-07
3.98826e-07
3.99856e-07
4.00886e-07
4.01915e-07
4.02943e-07
4.03971e-07
4.04998e-07
4.06024e-07
4.0705e-07
4.08075e-07
4.09099e-07
4.10122e-07
4.11145e-07
4.12166e-07
4.13187e-07
4.14208e-07
4.15227e-07
4.16246e-07
4.17264e-07
4.18281e-07
4.19297e-07
4.20313e-07
4.21328e-07
4.22342e-07
4.23355e-07
4.24367e-07
4.25379e-07
4.2639e-07
4.274e-07
4.28409e-07
4.29417e-07
4.30425e-07
4.31431e-07
4.32437e-07
4.33442e-07
4.34446e-07
4.36222e-07
6.8451e-07
8.11177e-07
7.73181e-07
8.80728e-07
6.94747e-07
6.686e-07
9.02903e-07
8.33443e-08
3.93453e-07
3.94696e-07
3.9573e-07
3.96762e-07
3.97794e-07
3.98826e-07
3.99856e-07
4.00886e-07
4.01915e-07
4.02944e-07
4.03971e-07
4.04998e-07
4.06024e-07
4.0705e-07
4.08075e-07
4.09099e-07
4.10122e-07
4.11145e-07
4.12166e-07
4.13187e-07
4.14208e-07
4.15227e-07
4.16246e-07
4.17264e-07
4.18281e-07
4.19297e-07
4.20313e-07
4.21328e-07
4.22342e-07
4.23355e-07
4.24367e-07
4.25379e-07
4.2639e-07
4.274e-07
4.28409e-07
4.29417e-07
4.30425e-07
4.31431e-07
4.32437e-07
4.33442e-07
4.34446e-07
4.36222e-07
7.41578e-07
6.67176e-07
7.98405e-07
8.60131e-07
6.63814e-07
6.19644e-07
9.0268e-07
1.19648e-07
3.93453e-07
3.94696e-07
3.9573e-07
3.96762e-07
3.97794e-07
3.98826e-07
3.99856e-07
4.00886e-07
4.01915e-07
4.02943e-07
4.03971e-07
4.04998e-07
4.06024e-07
4.0705e-07
4.08075e-07
4.09099e-07
4.10122e-07
4.11145e-07
4.12166e-07
4.13187e-07
4.14208e-07
4.15227e-07
4.16246e-07
4.17264e-07
4.18281e-07
4.19297e-07
4.20313e-07
4.21328e-07
4.22342e-07
4.23355e-07
4.24367e-07
4.25379e-07
4.2639e-07
4.274e-07
4.28409e-07
4.29417e-07
4.30425e-07
4.31431e-07
4.32437e-07
4.33442e-07
4.34446e-07
4.36222e-07
7.30124e-07
8.15677e-07
7.35172e-07
8.95581e-07
7.60269e-07
6.89775e-07
9.01745e-07
6.12486e-08
3.93452e-07
3.94696e-07
3.9573e-07
3.96762e-07
3.97794e-07
3.98826e-07
3.99856e-07
4.00886e-07
4.01915e-07
4.02943e-07
4.03971e-07
4.04998e-07
4.06024e-07
4.0705e-07
4.08075e-07
4.09099e-07
4.10122e-07
4.11145e-07
4.12166e-07
4.13187e-07
4.14208e-07
4.15227e-07
4.16246e-07
4.17264e-07
4.18281e-07
4.19297e-07
4.20313e-07
4.21328e-07
4.22342e-07
4.23355e-07
4.24367e-07
4.25379e-07
4.2639e-07
4.274e-07
4.28409e-07
4.29417e-07
4.30425e-07
4.31431e-07
4.32437e-07
4.33442e-07
4.34446e-07
4.36222e-07
9.56306e-07
8.66277e-07
8.11244e-07
3.7018e-07
5.58513e-07
6.81351e-07
6.99044e-07
3.534e-08
3.93453e-07
3.94696e-07
3.9573e-07
3.96762e-07
3.97794e-07
3.98826e-07
3.99856e-07
4.00886e-07
4.01915e-07
4.02943e-07
4.03971e-07
4.04998e-07
4.06024e-07
4.0705e-07
4.08075e-07
4.09099e-07
4.10122e-07
4.11145e-07
4.12166e-07
4.13187e-07
4.14208e-07
4.15227e-07
4.16246e-07
4.17264e-07
4.18281e-07
4.19297e-07
4.20313e-07
4.21328e-07
4.22342e-07
4.23355e-07
4.24367e-07
4.25379e-07
4.2639e-07
4.274e-07
4.28409e-07
4.29417e-07
4.30425e-07
4.31431e-07
4.32437e-07
4.33442e-07
4.34446e-07
4.36222e-07
9.62104e-07
9.46688e-07
7.86155e-07
8.73847e-07
5.18615e-07
5.70655e-07
6.99532e-07
1.29502e-07
3.93453e-07
3.94696e-07
3.9573e-07
3.96763e-07
3.97794e-07
3.98826e-07
3.99856e-07
4.00886e-07
4.01915e-07
4.02944e-07
4.03971e-07
4.04998e-07
4.06024e-07
4.0705e-07
4.08075e-07
4.09099e-07
4.10122e-07
4.11145e-07
4.12166e-07
4.13187e-07
4.14208e-07
4.15227e-07
4.16246e-07
4.17264e-07
4.18281e-07
4.19297e-07
4.20313e-07
4.21328e-07
4.22342e-07
4.23355e-07
4.24367e-07
4.25379e-07
4.2639e-07
4.274e-07
4.28409e-07
4.29417e-07
4.30425e-07
4.31431e-07
4.32437e-07
4.33442e-07
4.34446e-07
4.36222e-07
9.65661e-07
9.65855e-07
9.4802e-07
9.41034e-07
8.70064e-07
6.83629e-07
2.00677e-07
1.29724e-07
3.93454e-07
3.94697e-07
3.9573e-07
3.96763e-07
3.97794e-07
3.98826e-07
3.99856e-07
4.00886e-07
4.01915e-07
4.02944e-07
4.03971e-07
4.04998e-07
4.06024e-07
4.0705e-07
4.08075e-07
4.09099e-07
4.10122e-07
4.11145e-07
4.12166e-07
4.13187e-07
4.14208e-07
4.15227e-07
4.16246e-07
4.17264e-07
4.18281e-07
4.19297e-07
4.20313e-07
4.21328e-07
4.22342e-07
4.23355e-07
4.24367e-07
4.25379e-07
4.2639e-07
4.274e-07
4.28409e-07
4.29417e-07
4.30425e-07
4.31431e-07
4.32437e-07
4.33442e-07
4.34446e-07
4.36222e-07
9.72032e-07
9.67265e-07
9.61556e-07
8.91352e-07
9.21992e-07
7.04453e-07
1.10287e-07
5.04455e-07
5.06386e-07
5.07527e-07
5.08665e-07
5.09802e-07
5.10938e-07
5.12071e-07
5.13203e-07
5.14334e-07
5.15463e-07
5.1659e-07
5.17716e-07
5.1884e-07
5.19963e-07
5.21084e-07
5.22202e-07
5.2332e-07
5.24437e-07
5.2555e-07
5.26664e-07
5.27775e-07
5.28884e-07
5.29992e-07
5.31098e-07
5.32202e-07
5.33305e-07
5.34407e-07
5.35506e-07
5.36604e-07
5.37701e-07
5.38794e-07
5.39888e-07
5.40979e-07
5.42068e-07
5.43156e-07
5.44243e-07
5.45327e-07
5.4641e-07
5.47491e-07
5.4857e-07
5.49648e-07
5.50725e-07
5.5304e-07
9.61103e-07
9.69553e-07
9.78072e-07
9.63693e-07
8.97143e-07
6.71553e-07
2.64263e-07
1.84067e-07
5.06039e-07
5.07527e-07
5.08665e-07
5.09802e-07
5.10938e-07
5.12071e-07
5.13203e-07
5.14334e-07
5.15463e-07
5.1659e-07
5.17716e-07
5.1884e-07
5.19963e-07
5.21084e-07
5.22202e-07
5.2332e-07
5.24437e-07
5.2555e-07
5.26664e-07
5.27775e-07
5.28884e-07
5.29992e-07
5.31098e-07
5.32202e-07
5.33305e-07
5.34407e-07
5.35506e-07
5.36604e-07
5.377e-07
5.38794e-07
5.39888e-07
5.40979e-07
5.42068e-07
5.43156e-07
5.44243e-07
5.45327e-07
5.4641e-07
5.47491e-07
5.4857e-07
5.49648e-07
5.50725e-07
5.5304e-07
9.70947e-07
9.69502e-07
9.78813e-07
9.11239e-07
6.88907e-07
6.66248e-07
7.77123e-07
1.83839e-07
5.06038e-07
5.07526e-07
5.08664e-07
5.09802e-07
5.10938e-07
5.12071e-07
5.13203e-07
5.14334e-07
5.15463e-07
5.1659e-07
5.17716e-07
5.1884e-07
5.19963e-07
5.21084e-07
5.22202e-07
5.2332e-07
5.24437e-07
5.25551e-07
5.26664e-07
5.27775e-07
5.28884e-07
5.29992e-07
5.31098e-07
5.32202e-07
5.33305e-07
5.34407e-07
5.35506e-07
5.36604e-07
5.37701e-07
5.38794e-07
5.39888e-07
5.40979e-07
5.42068e-07
5.43156e-07
5.44243e-07
5.45327e-07
5.4641e-07
5.47491e-07
5.4857e-07
5.49648e-07
5.50725e-07
5.5304e-07
9.15586e-07
8.72702e-07
8.6786e-07
8.05513e-07
4.03841e-07
5.11251e-07
9.32557e-07
5.42318e-08
5.06035e-07
5.07525e-07
5.08664e-07
5.09802e-07
5.10937e-07
5.12071e-07
5.13203e-07
5.14334e-07
5.15463e-07
5.1659e-07
5.17716e-07
5.1884e-07
5.19963e-07
5.21084e-07
5.22202e-07
5.2332e-07
5.24437e-07
5.25551e-07
5.26664e-07
5.27775e-07
5.28884e-07
5.29992e-07
5.31098e-07
5.32202e-07
5.33305e-07
5.34407e-07
5.35506e-07
5.36604e-07
5.37701e-07
5.38794e-07
5.39888e-07
5.40979e-07
5.42068e-07
5.43156e-07
5.44243e-07
5.45327e-07
5.4641e-07
5.47491e-07
5.4857e-07
5.49648e-07
5.50725e-07
5.5304e-07
4.91578e-07
8.92131e-07
6.30149e-07
4.30742e-07
7.55288e-07
6.74759e-07
9.31595e-07
1.20987e-07
5.06035e-07
5.07526e-07
5.08664e-07
5.09802e-07
5.10937e-07
5.12071e-07
5.13203e-07
5.14334e-07
5.15463e-07
5.1659e-07
5.17716e-07
5.1884e-07
5.19963e-07
5.21084e-07
5.22202e-07
5.2332e-07
5.24437e-07
5.2555e-07
5.26664e-07
5.27775e-07
5.28884e-07
5.29992e-07
5.31098e-07
5.32202e-07
5.33305e-07
5.34407e-07
5.35506e-07
5.36604e-07
5.377e-07
5.38794e-07
5.39888e-07
5.40979e-07
5.42068e-07
5.43156e-07
5.44243e-07
5.45327e-07
5.4641e-07
5.47491e-07
5.4857e-07
5.49648e-07
5.50725e-07
5.5304e-07
2.6117e-07
4.57586e-07
3.88531e-07
8.04544e-07
8.2869e-07
6.47458e-07
9.31857e-07
1.72532e-07
5.06036e-07
5.07526e-07
5.08664e-07
5.09802e-07
5.10937e-07
5.12071e-07
5.13203e-07
5.14334e-07
5.15463e-07
5.1659e-07
5.17716e-07
5.1884e-07
5.19963e-07
5.21084e-07
5.22203e-07
5.2332e-07
5.24437e-07
5.2555e-07
5.26664e-07
5.27775e-07
5.28884e-07
5.29992e-07
5.31098e-07
5.32202e-07
5.33305e-07
5.34407e-07
5.35506e-07
5.36604e-07
5.377e-07
5.38794e-07
5.39888e-07
5.40979e-07
5.42068e-07
5.43156e-07
5.44243e-07
5.45327e-07
5.4641e-07
5.47491e-07
5.4857e-07
5.49648e-07
5.50725e-07
5.53039e-07
3.49416e-07
7.43509e-07
6.65149e-07
7.36598e-07
8.11298e-07
7.04584e-07
9.30957e-07
8.9748e-08
5.06034e-07
5.07525e-07
5.08664e-07
5.09801e-07
5.10937e-07
5.12071e-07
5.13203e-07
5.14334e-07
5.15463e-07
5.1659e-07
5.17716e-07
5.1884e-07
5.19963e-07
5.21084e-07
5.22203e-07
5.2332e-07
5.24437e-07
5.2555e-07
5.26664e-07
5.27775e-07
5.28884e-07
5.29992e-07
5.31098e-07
5.32202e-07
5.33305e-07
5.34407e-07
5.35506e-07
5.36604e-07
5.37701e-07
5.38794e-07
5.39888e-07
5.40979e-07
5.42068e-07
5.43156e-07
5.44243e-07
5.45327e-07
5.4641e-07
5.47491e-07
5.4857e-07
5.49648e-07
5.50725e-07
5.53039e-07
9.25075e-07
9.06656e-07
8.80501e-07
4.03801e-07
6.84054e-07
7.19413e-07
7.77456e-07
5.21424e-08
5.06036e-07
5.07525e-07
5.08664e-07
5.09802e-07
5.10937e-07
5.12071e-07
5.13203e-07
5.14334e-07
5.15463e-07
5.1659e-07
5.17716e-07
5.1884e-07
5.19963e-07
5.21084e-07
5.22202e-07
5.2332e-07
5.24437e-07
5.2555e-07
5.26664e-07
5.27775e-07
5.28884e-07
5.29992e-07
5.31098e-07
5.32202e-07
5.33305e-07
5.34407e-07
5.35506e-07
5.36604e-07
5.377e-07
5.38794e-07
5.39888e-07
5.40979e-07
5.42068e-07
5.43156e-07
5.44243e-07
5.45327e-07
5.4641e-07
5.47491e-07
5.4857e-07
5.49648e-07
5.50725e-07
5.53039e-07
9.64532e-07
9.24498e-07
8.48946e-07
9.09065e-07
3.76168e-07
4.30649e-07
7.73906e-07
1.83948e-07
5.06037e-07
5.07526e-07
5.08664e-07
5.09802e-07
5.10938e-07
5.12071e-07
5.13203e-07
5.14334e-07
5.15463e-07
5.1659e-07
5.17716e-07
5.1884e-07
5.19963e-07
5.21084e-07
5.22202e-07
5.23321e-07
5.24437e-07
5.2555e-07
5.26664e-07
5.27775e-07
5.28884e-07
5.29992e-07
5.31098e-07
5.32202e-07
5.33305e-07
5.34407e-07
5.35506e-07
5.36604e-07
5.377e-07
5.38794e-07
5.39888e-07
5.40979e-07
5.42068e-07
5.43156e-07
5.44243e-07
5.45327e-07
5.4641e-07
5.47491e-07
5.4857e-07
5.49648e-07
5.50725e-07
5.5304e-07
9.71102e-07
9.63879e-07
8.84962e-07
7.34967e-07
9.18226e-07
7.54913e-07
2.74986e-07
1.83949e-07
5.0604e-07
5.07528e-07
5.08665e-07
5.09802e-07
5.10938e-07
5.12071e-07
5.13203e-07
5.14334e-07
5.15463e-07
5.1659e-07
5.17716e-07
5.1884e-07
5.19963e-07
5.21084e-07
5.22203e-07
5.2332e-07
5.24437e-07
5.25551e-07
5.26664e-07
5.27775e-07
5.28884e-07
5.29992e-07
5.31098e-07
5.32202e-07
5.33305e-07
5.34407e-07
5.35506e-07
5.36604e-07
5.377e-07
5.38794e-07
5.39888e-07
5.40979e-07
5.42068e-07
5.43156e-07
5.44243e-07
5.45327e-07
5.4641e-07
5.47491e-07
5.4857e-07
5.49648e-07
5.50725e-07
5.5304e-07
9.60894e-07
9.69892e-07
9.61921e-07
8.82778e-07
5.99593e-07
7.17999e-07
1.09762e-07
3.92153e-07
3.93663e-07
3.94697e-07
3.9573e-07
3.96763e-07
3.97794e-07
3.98826e-07
3.99856e-07
4.00886e-07
4.01915e-07
4.02943e-07
4.03971e-07
4.04998e-07
4.06024e-07
4.0705e-07
4.08075e-07
4.09099e-07
4.10122e-07
4.11145e-07
4.12166e-07
4.13187e-07
4.14208e-07
4.15227e-07
4.16246e-07
4.17264e-07
4.18281e-07
4.19297e-07
4.20313e-07
4.21328e-07
4.22342e-07
4.23355e-07
4.24367e-07
4.25379e-07
4.2639e-07
4.274e-07
4.28409e-07
4.29417e-07
4.30425e-07
4.31431e-07
4.32437e-07
4.33442e-07
4.34446e-07
4.36222e-07
9.67624e-07
9.64245e-07
9.62472e-07
9.7172e-07
8.6845e-07
6.99613e-07
2.65465e-07
1.84071e-07
3.93454e-07
3.94697e-07
3.9573e-07
3.96763e-07
3.97794e-07
3.98826e-07
3.99856e-07
4.00886e-07
4.01915e-07
4.02943e-07
4.03971e-07
4.04998e-07
4.06024e-07
4.0705e-07
4.08075e-07
4.09099e-07
4.10122e-07
4.11145e-07
4.12166e-07
4.13187e-07
4.14208e-07
4.15227e-07
4.16246e-07
4.17264e-07
4.18281e-07
4.19297e-07
4.20313e-07
4.21328e-07
4.22342e-07
4.23355e-07
4.24367e-07
4.25379e-07
4.2639e-07
4.274e-07
4.28409e-07
4.29417e-07
4.30425e-07
4.31431e-07
4.32437e-07
4.33442e-07
4.34446e-07
4.36222e-07
9.25493e-07
9.5974e-07
9.62951e-07
9.51575e-07
7.0765e-07
6.85299e-07
7.77318e-07
1.83843e-07
3.93453e-07
3.94697e-07
3.9573e-07
3.96763e-07
3.97794e-07
3.98826e-07
3.99856e-07
4.00886e-07
4.01915e-07
4.02943e-07
4.03971e-07
4.04998e-07
4.06024e-07
4.0705e-07
4.08075e-07
4.09099e-07
4.10122e-07
4.11145e-07
4.12166e-07
4.13187e-07
4.14208e-07
4.15227e-07
4.16246e-07
4.17264e-07
4.18281e-07
4.19297e-07
4.20313e-07
4.21328e-07
4.22342e-07
4.23355e-07
4.24367e-07
4.25379e-07
4.2639e-07
4.274e-07
4.28409e-07
4.29417e-07
4.30425e-07
4.31431e-07
4.32437e-07
4.33442e-07
4.34446e-07
4.36222e-07
6.3553e-07
9.09859e-07
8.89821e-07
9.03465e-07
8.54539e-07
5.34013e-07
9.32809e-07
5.41674e-08
3.93452e-07
3.94696e-07
3.9573e-07
3.96762e-07
3.97794e-07
3.98826e-07
3.99856e-07
4.00886e-07
4.01915e-07
4.02943e-07
4.03971e-07
4.04998e-07
4.06024e-07
4.0705e-07
4.08075e-07
4.09099e-07
4.10122e-07
4.11145e-07
4.12166e-07
4.13187e-07
4.14208e-07
4.15227e-07
4.16246e-07
4.17264e-07
4.18281e-07
4.19297e-07
4.20313e-07
4.21328e-07
4.22342e-07
4.23355e-07
4.24367e-07
4.25379e-07
4.2639e-07
4.274e-07
4.28409e-07
4.29417e-07
4.30425e-07
4.31431e-07
4.32437e-07
4.33442e-07
4.34446e-07
4.36222e-07
4.81648e-07
8.89201e-07
6.15465e-07
5.65455e-07
8.91923e-07
6.68973e-07
9.31509e-07
1.20933e-07
3.93453e-07
3.94696e-07
3.9573e-07
3.96762e-07
3.97794e-07
3.98826e-07
3.99856e-07
4.00886e-07
4.01915e-07
4.02943e-07
4.03971e-07
4.04998e-07
4.06024e-07
4.0705e-07
4.08075e-07
4.09099e-07
4.10122e-07
4.11145e-07
4.12166e-07
4.13187e-07
4.14208e-07
4.15227e-07
4.16246e-07
4.17264e-07
4.18281e-07
4.19297e-07
4.20313e-07
4.21328e-07
4.22342e-07
4.23355e-07
4.24367e-07
4.25379e-07
4.2639e-07
4.274e-07
4.28409e-07
4.29417e-07
4.30425e-07
4.31431e-07
4.32437e-07
4.33442e-07
4.34446e-07
4.36222e-07
2.02129e-07
8.49031e-07
3.83861e-07
8.52783e-07
8.40545e-07
6.87308e-07
9.31714e-07
1.72372e-07
3.93453e-07
3.94696e-07
3.9573e-07
3.96762e-07
3.97794e-07
3.98826e-07
3.99856e-07
4.00886e-07
4.01915e-07
4.02943e-07
4.03971e-07
4.04998e-07
4.06024e-07
4.0705e-07
4.08075e-07
4.09099e-07
4.10122e-07
4.11145e-07
4.12166e-07
4.13187e-07
4.14208e-07
4.15227e-07
4.16246e-07
4.17264e-07
4.18281e-07
4.19297e-07
4.20313e-07
4.21328e-07
4.22342e-07
4.23355e-07
4.24367e-07
4.25379e-07
4.2639e-07
4.274e-07
4.28409e-07
4.29417e-07
4.30425e-07
4.31431e-07
4.32437e-07
4.33442e-07
4.34446e-07
4.36222e-07
4.37919e-07
6.45151e-07
5.06785e-07
9.27236e-07
6.65631e-07
6.14795e-07
9.30591e-07
8.96875e-08
3.93452e-07
3.94696e-07
3.9573e-07
3.96762e-07
3.97794e-07
3.98826e-07
3.99856e-07
4.00886e-07
4.01915e-07
4.02943e-07
4.03971e-07
4.04998e-07
4.06024e-07
4.0705e-07
4.08075e-07
4.09099e-07
4.10122e-07
4.11145e-07
4.12166e-07
4.13187e-07
4.14208e-07
4.15227e-07
4.16246e-07
4.17264e-07
4.18281e-07
4.19297e-07
4.20313e-07
4.21328e-07
4.22342e-07
4.23355e-07
4.24367e-07
4.25379e-07
4.2639e-07
4.274e-07
4.28409e-07
4.29417e-07
4.30425e-07
4.31431e-07
4.32437e-07
4.33442e-07
4.34446e-07
4.36222e-07
8.54776e-07
8.91712e-07
8.91784e-07
6.67734e-07
8.83351e-07
7.60055e-07
7.77887e-07
5.21297e-08
3.93453e-07
3.94696e-07
3.9573e-07
3.96762e-07
3.97794e-07
3.98826e-07
3.99856e-07
4.00886e-07
4.01915e-07
4.02943e-07
4.03971e-07
4.04998e-07
4.06024e-07
4.0705e-07
4.08075e-07
4.09099e-07
4.10122e-07
4.11145e-07
4.12166e-07
4.13187e-07
4.14208e-07
4.15227e-07
4.16246e-07
4.17264e-07
4.18281e-07
4.19297e-07
4.20313e-07
4.21328e-07
4.22342e-07
4.23355e-07
4.24367e-07
4.25379e-07
4.2639e-07
4.274e-07
4.28409e-07
4.29417e-07
4.30425e-07
4.31431e-07
4.32437e-07
4.33442e-07
4.34446e-07
4.36222e-07
9.51049e-07
9.08164e-07
4.67737e-07
7.11503e-07
6.44692e-07
4.56785e-07
7.73843e-07
1.83952e-07
3.93453e-07
3.94696e-07
3.9573e-07
3.96762e-07
3.97794e-07
3.98826e-07
3.99856e-07
4.00886e-07
4.01915e-07
4.02943e-07
4.03971e-07
4.04998e-07
4.06024e-07
4.0705e-07
4.08075e-07
4.09099e-07
4.10122e-07
4.11145e-07
4.12166e-07
4.13187e-07
4.14208e-07
4.15227e-07
4.16246e-07
4.17264e-07
4.18281e-07
4.19297e-07
4.20313e-07
4.21328e-07
4.22342e-07
4.23355e-07
4.24367e-07
4.25379e-07
4.2639e-07
4.274e-07
4.28409e-07
4.29417e-07
4.30425e-07
4.31431e-07
4.32437e-07
4.33442e-07
4.34446e-07
4.36222e-07
9.65823e-07
9.6663e-07
8.86736e-07
4.58376e-07
6.2371e-07
6.91301e-07
2.75182e-07
1.83953e-07
3.93454e-07
3.94697e-07
3.9573e-07
3.96763e-07
3.97794e-07
3.98826e-07
3.99856e-07
4.00886e-07
4.01915e-07
4.02943e-07
4.03971e-07
4.04998e-07
4.06024e-07
4.0705e-07
4.08075e-07
4.09099e-07
4.10122e-07
4.11145e-07
4.12166e-07
4.13187e-07
4.14208e-07
4.15227e-07
4.16246e-07
4.17264e-07
4.18281e-07
4.19297e-07
4.20313e-07
4.21328e-07
4.22342e-07
4.23355e-07
4.24367e-07
4.25379e-07
4.2639e-07
4.274e-07
4.28409e-07
4.29417e-07
4.30425e-07
4.31431e-07
4.32437e-07
4.33442e-07
4.34446e-07
4.36222e-07
6.94264e-07
6.83978e-07
6.95936e-07
7.08892e-07
7.6861e-07
7.36228e-07
7.70013e-07
6.98179e-07
6.76629e-07
7.00903e-07
7.11227e-07
7.72644e-07
7.06996e-07
7.77202e-07
7.00794e-07
6.7777e-07
7.00458e-07
6.67077e-07
7.7708e-07
6.67001e-07
7.7601e-07
6.99504e-07
6.73948e-07
6.99598e-07
5.37925e-07
7.74207e-07
7.22416e-07
7.70934e-07
6.98015e-07
6.62767e-07
7.00533e-07
6.7057e-07
7.70743e-07
6.05748e-07
7.76232e-07
7.00481e-07
6.7183e-07
7.00046e-07
6.61327e-07
7.76687e-07
7.02287e-07
7.72364e-07
6.9904e-07
6.80102e-07
7.00486e-07
7.41239e-07
7.692e-07
6.70484e-07
7.75129e-07
7.00661e-07
6.44929e-07
7.00504e-07
7.2657e-07
7.77499e-07
5.82535e-07
7.76247e-07
7.00386e-07
6.82019e-07
6.99703e-07
4.40095e-07
7.74683e-07
7.38901e-07
7.74747e-07
6.9896e-07
6.76412e-07
6.95014e-07
7.64887e-07
7.72232e-07
6.44758e-07
7.69831e-07
7.6787e-07
7.33493e-07
7.69647e-07
7.23338e-07
7.67801e-07
7.07303e-07
7.69309e-07
7.72479e-07
6.69142e-07
7.77606e-07
6.61472e-07
7.72996e-07
6.03304e-07
7.77004e-07
7.7706e-07
6.6235e-07
7.76309e-07
6.73639e-07
7.77333e-07
6.31628e-07
7.76141e-07
7.74212e-07
7.26458e-07
7.67173e-07
5.34092e-07
7.74579e-07
7.4851e-07
7.71593e-07
7.7235e-07
5.95146e-07
7.74896e-07
6.71007e-07
7.72615e-07
6.73508e-07
7.76823e-07
7.76692e-07
7.00915e-07
7.70707e-07
6.99762e-07
7.75258e-07
7.18913e-07
7.74751e-07
7.70322e-07
6.80249e-07
7.74607e-07
6.20142e-07
7.70415e-07
6.9024e-07
7.74891e-07
7.77278e-07
5.81735e-07
7.76047e-07
7.56106e-07
7.76837e-07
6.03355e-07
7.76515e-07
7.74251e-07
7.48767e-07
7.73594e-07
4.31158e-07
7.74579e-07
7.54641e-07
7.73647e-07
7.71641e-07
6.54287e-07
7.69712e-07
7.34046e-07
7.72514e-07
6.49948e-07
7.69676e-07
7.67881e-07
6.99493e-07
7.69405e-07
6.83478e-07
6.94291e-07
6.90085e-07
6.96008e-07
7.73003e-07
6.32268e-07
7.77291e-07
6.89314e-07
6.97768e-07
6.60185e-07
7.00939e-07
7.77315e-07
6.38394e-07
7.76169e-07
6.59916e-07
7.00933e-07
5.02133e-07
7.00354e-07
7.74738e-07
7.41975e-07
7.71162e-07
4.76912e-07
6.98184e-07
6.656e-07
6.99786e-07
7.73177e-07
6.53943e-07
7.7598e-07
6.75915e-07
6.99361e-07
5.20285e-07
7.00162e-07
7.75677e-07
7.35464e-07
7.74476e-07
6.26751e-07
7.00674e-07
6.76207e-07
6.99815e-07
7.68133e-07
7.10645e-07
7.73407e-07
5.32171e-07
6.98605e-07
6.76187e-07
6.9911e-07
7.76932e-07
6.32724e-07
7.76934e-07
6.81853e-07
7.00621e-07
6.17427e-07
7.00529e-07
7.7485e-07
7.33446e-07
7.73126e-07
5.97449e-07
7.00401e-07
6.70725e-07
7.0069e-07
7.72769e-07
6.51104e-07
7.69858e-07
6.4817e-07
6.98882e-07
6.49126e-07
6.94997e-07
8.89685e-07
8.81569e-07
8.73286e-07
8.44629e-07
8.94206e-07
9.03664e-07
9.21056e-07
7.65714e-07
6.98503e-07
6.82782e-07
7.31269e-07
7.48671e-07
6.95817e-07
7.73344e-07
1.29569e-07
1.20093e-07
1.29518e-07
1.0957e-07
1.8384e-07
1.7144e-07
1.83737e-07
8.84705e-07
8.73028e-07
6.32011e-07
9.06854e-07
8.97981e-07
9.02313e-07
7.8052e-07
7.30225e-07
6.92308e-07
6.37045e-07
7.65065e-07
7.61205e-07
6.46906e-07
6.81785e-07
3.52934e-08
6.98594e-07
3.51656e-08
2.64622e-07
5.20165e-08
7.73818e-07
5.19877e-08
6.93748e-07
6.66625e-07
4.17443e-07
4.9607e-07
6.85919e-07
7.04035e-07
6.96688e-07
7.67386e-07
6.98435e-07
6.77848e-07
7.63259e-07
7.71792e-07
7.39636e-07
6.95232e-07
3.529e-08
6.98857e-07
5.64265e-08
7.77138e-07
5.20108e-08
7.7677e-07
8.29678e-08
3.53558e-07
8.72974e-07
8.14705e-07
3.59731e-07
2.73072e-07
8.03334e-07
3.44098e-07
7.59696e-07
6.91796e-07
5.772e-07
6.40485e-07
7.60763e-07
6.16839e-07
6.86546e-07
1.00798e-07
9.02335e-07
6.93253e-07
9.32526e-07
1.43836e-07
9.31532e-07
7.67759e-07
6.5521e-07
6.03014e-07
1.45654e-07
5.65904e-07
4.51097e-07
3.78736e-07
2.59291e-07
7.19681e-07
6.94891e-07
5.68621e-07
6.87423e-07
7.63883e-07
6.28306e-07
6.458e-07
6.95793e-07
9.02676e-07
6.98105e-07
9.32767e-07
7.70815e-07
9.31658e-07
7.72549e-07
3.15936e-07
8.81372e-07
7.26265e-07
5.8246e-07
3.14486e-07
8.92547e-07
8.52333e-07
7.62543e-07
6.75121e-07
6.5688e-07
6.74658e-07
7.61332e-07
7.15974e-07
6.94567e-07
6.97699e-07
9.02192e-07
6.95689e-07
9.31963e-07
7.72658e-07
9.31897e-07
7.70488e-07
6.36601e-07
8.59219e-07
8.52853e-07
7.73355e-07
7.51306e-07
9.1671e-07
8.91332e-07
7.63183e-07
6.97086e-07
6.78642e-07
7.52139e-07
7.70403e-07
7.25505e-07
6.9331e-07
6.92711e-07
9.02547e-07
1.05158e-07
9.30066e-07
7.67438e-07
9.31348e-07
1.49469e-07
8.62057e-07
4.53695e-07
3.5555e-07
5.01953e-07
9.07306e-07
6.51957e-07
3.75871e-07
7.59523e-07
6.9793e-07
6.97605e-07
7.15284e-07
7.72959e-07
7.1039e-07
6.94527e-07
6.33955e-08
6.99649e-07
3.51657e-08
7.77523e-07
9.23831e-08
7.76142e-07
5.23109e-08
2.15406e-07
7.64012e-07
8.56853e-07
4.46549e-07
3.43108e-07
8.60059e-07
8.90251e-07
6.95568e-07
6.95439e-07
5.51019e-07
6.1384e-07
7.60649e-07
5.18138e-07
6.2111e-07
3.52169e-08
4.42881e-07
3.52095e-08
7.73847e-07
5.19972e-08
5.19946e-07
5.19791e-08
8.96572e-07
8.51874e-07
8.9124e-07
8.81331e-07
8.73531e-07
8.71563e-07
9.11824e-07
7.66776e-07
6.95949e-07
6.48433e-07
7.24968e-07
7.65364e-07
6.46516e-07
6.98057e-07
3.52761e-08
8.29805e-08
1.29423e-07
2.75323e-07
5.19791e-08
1.19489e-07
1.83544e-07
9.22985e-07
9.15555e-07
8.91274e-07
7.72608e-07
8.89778e-07
8.8296e-07
9.15433e-07
7.31138e-07
7.66678e-07
7.10838e-07
7.06806e-07
7.36809e-07
7.06955e-07
7.63628e-07
1.83836e-07
1.71593e-07
1.83733e-07
1.10994e-07
1.83836e-07
1.7277e-07
1.83733e-07
8.78976e-07
8.38577e-07
8.5288e-07
8.92504e-07
9.21643e-07
7.87456e-07
8.2714e-07
6.66836e-07
7.68634e-07
5.4691e-07
6.738e-07
6.61875e-07
7.63698e-07
5.64138e-07
5.2016e-08
7.73593e-07
5.19873e-08
2.64742e-07
5.20161e-08
7.73816e-07
5.19873e-08
7.18685e-07
6.51741e-07
5.37362e-07
7.03082e-07
8.22129e-07
2.8736e-07
6.91493e-07
7.57218e-07
7.56701e-07
7.48981e-07
6.30275e-07
7.64856e-07
7.58145e-07
7.00057e-07
5.20106e-08
7.76988e-07
8.31611e-08
7.76932e-07
5.20108e-08
7.77264e-07
8.31348e-08
2.30062e-07
9.14804e-07
6.98033e-07
3.96909e-07
3.28235e-07
8.64833e-07
8.35578e-07
7.33298e-07
7.49588e-07
6.22071e-07
5.31868e-07
7.40462e-07
7.42924e-07
5.93885e-07
1.438e-07
9.32284e-07
7.67648e-07
9.32537e-07
1.43757e-07
9.32179e-07
7.67346e-07
7.66439e-07
5.05673e-07
2.89394e-07
9.09696e-07
7.86451e-07
4.36528e-07
2.74892e-07
7.14961e-07
7.48371e-07
5.12493e-07
6.67448e-07
6.92388e-07
7.48152e-07
4.78065e-07
7.70634e-07
9.31579e-07
7.72322e-07
9.31775e-07
7.70401e-07
9.31689e-07
7.72553e-07
3.43867e-07
8.93037e-07
8.27071e-07
6.06695e-07
3.95286e-07
9.10273e-07
8.22497e-07
7.40836e-07
7.52298e-07
6.98286e-07
6.66959e-07
7.44498e-07
7.49134e-07
7.01274e-07
7.72165e-07
9.31733e-07
7.70258e-07
9.31556e-07
7.72507e-07
9.31546e-07
7.70049e-07
8.37371e-07
9.18558e-07
7.97706e-07
7.33103e-07
8.24405e-07
8.80518e-07
9.0751e-07
7.49199e-07
7.60309e-07
5.90342e-07
6.01099e-07
7.5192e-07
7.56975e-07
5.63226e-07
7.67474e-07
9.31098e-07
1.4953e-07
9.31125e-07
7.6675e-07
9.31511e-07
1.49457e-07
8.35222e-07
4.09601e-07
3.68032e-07
8.73354e-07
8.99241e-07
7.93516e-07
2.71864e-07
7.56378e-07
7.66101e-07
5.7074e-07
7.1911e-07
7.57167e-07
7.61866e-07
5.40378e-07
9.24306e-08
7.75966e-07
5.23396e-08
7.77737e-07
9.24195e-08
7.75862e-07
5.23388e-08
3.14207e-07
7.61614e-07
5.49116e-07
6.24261e-07
1.54257e-07
8.41729e-07
5.37301e-07
6.65892e-07
7.37995e-07
3.84295e-07
4.16442e-07
6.67155e-07
7.25819e-07
3.43487e-07
5.19968e-08
5.1628e-07
5.19786e-08
7.73607e-07
5.19969e-08
5.12684e-07
5.19786e-08
6.76559e-07
6.72076e-07
8.5309e-07
6.17052e-07
4.40099e-07
4.24798e-07
6.6427e-07
7.55369e-07
7.47197e-07
7.38545e-07
7.33444e-07
7.63635e-07
7.50712e-07
7.57573e-07
5.19786e-08
1.21127e-07
1.83542e-07
2.74892e-07
5.19786e-08
1.19674e-07
1.83542e-07
6.93495e-07
9.21808e-07
8.9704e-07
6.7883e-07
6.15562e-07
8.69166e-07
8.51126e-07
7.38646e-07
7.67839e-07
7.13579e-07
7.27703e-07
7.32602e-07
7.01721e-07
7.69104e-07
1.8384e-07
1.73071e-07
1.83736e-07
7.5902e-08
1.29569e-07
1.19944e-07
1.29518e-07
9.19291e-07
9.02752e-07
8.79197e-07
8.71551e-07
8.74148e-07
8.30534e-07
7.83084e-07
6.99048e-07
7.70724e-07
6.19783e-07
6.72393e-07
6.79208e-07
7.70265e-07
6.35407e-07
5.20165e-08
7.73925e-07
5.19876e-08
1.95062e-07
3.52722e-08
6.9863e-07
3.51656e-08
7.62432e-07
6.24272e-07
7.30863e-07
7.02222e-07
7.96981e-07
7.80083e-07
6.41583e-07
7.6279e-07
7.687e-07
6.29168e-07
6.97569e-07
7.61982e-07
7.67605e-07
5.95528e-07
5.20108e-08
7.77249e-07
8.29268e-08
7.0017e-07
3.51922e-08
6.9874e-07
5.64103e-08
7.94955e-07
9.1333e-07
9.07061e-07
8.64083e-07
8.37461e-07
8.69997e-07
8.37452e-07
7.13723e-07
7.49647e-07
5.64215e-07
5.43604e-07
7.14642e-07
7.44893e-07
5.91904e-07
1.43771e-07
9.32209e-07
7.6704e-07
9.03258e-07
1.00692e-07
9.02782e-07
6.9324e-07
9.01529e-07
3.92194e-07
2.68107e-07
8.6866e-07
8.5182e-07
8.61195e-07
5.4515e-07
7.60762e-07
7.53678e-07
6.40003e-07
6.77162e-07
7.46662e-07
7.58736e-07
6.41138e-07
7.70654e-07
9.31826e-07
7.72662e-07
9.02891e-07
6.95843e-07
9.02758e-07
6.98095e-07
3.86841e-07
8.86447e-07
8.84319e-07
8.1428e-07
6.32131e-07
7.70954e-07
8.29102e-07
7.60733e-07
7.66227e-07
6.82302e-07
6.85019e-07
7.52157e-07
7.65955e-07
6.75577e-07
7.72527e-07
9.31736e-07
7.70247e-07
9.0263e-07
6.97736e-07
9.02272e-07
6.95644e-07
7.43753e-07
7.73532e-07
8.6278e-07
5.73973e-07
6.7793e-07
8.843e-07
8.77927e-07
7.36068e-07
7.66279e-07
6.38008e-07
5.62677e-07
7.37653e-07
7.67213e-07
6.50042e-07
7.66284e-07
9.31922e-07
1.49438e-07
9.01976e-07
6.92733e-07
9.02648e-07
1.05097e-07
8.75637e-07
8.10546e-07
3.39539e-07
8.82739e-07
8.45063e-07
8.22086e-07
4.02302e-07
7.60064e-07
7.63664e-07
6.03518e-07
7.43772e-07
7.63923e-07
7.64501e-07
6.04171e-07
9.23685e-08
7.75914e-07
5.23109e-08
6.99013e-07
6.33361e-08
6.98527e-07
3.51652e-08
1.42008e-07
7.86844e-07
4.80506e-07
7.59614e-07
9.08913e-08
8.95065e-07
5.53742e-07
7.16886e-07
7.42442e-07
3.49806e-07
4.86573e-07
6.91347e-07
7.5234e-07
3.56575e-07
5.19971e-08
5.15966e-07
5.19791e-08
6.99621e-07
3.51495e-08
4.32907e-07
3.52106e-08
4.19005e-07
3.98266e-07
5.70988e-07
6.52547e-07
5.70896e-07
6.72247e-07
6.9681e-07
7.63749e-07
7.63173e-07
7.09101e-07
6.75474e-07
7.59763e-07
7.65556e-07
7.1237e-07
5.1979e-08
1.1958e-07
1.83544e-07
2.02876e-07
3.52761e-08
8.30843e-08
1.29423e-07
7.7256e-07
7.0013e-07
6.94724e-07
7.69445e-07
7.69252e-07
6.99044e-07
7.75273e-07
7.65902e-07
6.73184e-07
6.95051e-07
7.67388e-07
6.92939e-07
7.65976e-07
6.90751e-07
7.70575e-07
6.94704e-07
6.97349e-07
7.70416e-07
7.68861e-07
7.72816e-07
6.97144e-07
7.5511e-07
7.27772e-07
7.71039e-07
7.41085e-07
7.35215e-07
7.45223e-07
7.73182e-07
7.70161e-07
7.69384e-07
7.73566e-07
7.68839e-07
7.68913e-07
7.68272e-07
7.74378e-07
7.63716e-07
7.52595e-07
6.51321e-07
7.67851e-07
6.52373e-07
7.62014e-07
7.64462e-07
7.69952e-07
7.70183e-07
7.67978e-07
7.72004e-07
7.68324e-07
7.72432e-07
7.69633e-07
7.7474e-07
6.98878e-07
6.99309e-07
7.73447e-07
7.74025e-07
7.74534e-07
7.0048e-07
7.55863e-07
6.07314e-07
6.93487e-07
6.95615e-07
6.41815e-07
7.6837e-07
6.90383e-07
7.73782e-07
7.00362e-07
6.99528e-07
7.77459e-07
7.76487e-07
7.74466e-07
6.98658e-07
7.10209e-07
7.60438e-07
7.69102e-07
6.08944e-07
7.63039e-07
6.24454e-07
6.90367e-07
7.75946e-07
7.72942e-07
7.72711e-07
7.72655e-07
7.7307e-07
7.73292e-07
7.75466e-07
7.51806e-07
6.60816e-07
5.6268e-07
7.66867e-07
5.94859e-07
7.69632e-07
7.4476e-07
7.70252e-07
7.77295e-07
7.76016e-07
7.72392e-07
7.75936e-07
7.72832e-07
7.71646e-07
7.73344e-07
7.00353e-07
7.00659e-07
7.77399e-07
7.74542e-07
7.77245e-07
6.99207e-07
6.59104e-07
3.78805e-07
6.97513e-07
7.27911e-07
4.95013e-07
7.69101e-07
5.74974e-07
7.72452e-07