/*--------------------------------*- C++ -*----------------------------------*\
| =========                 |                                                 |
| \\      /  F ield         | OpenFOAM: The Open Source CFD Toolbox           |
|  \\    /   O peration     | Version:  5.0                                   |
|   \\  /    A nd           | Web:      www.OpenFOAM.org                      |
|    \\/     M anipulation  |                                                 |
\*---------------------------------------------------------------------------*/
FoamFile
{
    version     2.0;
    format      ascii;
    class       volVectorField;
    location    "4.3";
    object      U;
}
// * * * * * * * * * * * * * * * * * * * * * * * * * * * * * * * * * * * * * //

dimensions      [0 1 -1 0 0 0 0];

internalField   nonuniform List<vector> 
8311
(
(-0.00407382 0.00231881 7.26188e-05)
(-0.00292729 0.00438845 -6.90233e-05)
(-0.000947824 -1.88002e-05 0.000368511)
(0.00036578 0.00201102 2.24286e-05)
(0.00027098 0.000187427 -9.99414e-06)
(0.0028097 0.00178996 1.06983e-05)
(0.000712464 1.49672e-05 1.67072e-05)
(0.000852247 -2.86044e-06 -3.01103e-06)
(0.000855819 -1.10004e-08 4.69732e-08)
(0.000835486 -1.27723e-06 -8.91489e-08)
(0.000834358 -2.55298e-07 1.0336e-07)
(0.000830895 -1.56427e-07 4.89807e-08)
(0.000829684 5.78359e-09 -7.87244e-09)
(0.00082779 3.06009e-07 7.39035e-08)
(0.000825736 1.8693e-07 5.37616e-08)
(0.00082433 1.90544e-07 2.61781e-07)
(0.000822854 -1.46125e-08 5.32672e-08)
(0.000821322 -3.45949e-08 8.68444e-08)
(0.00081957 1.14013e-07 6.25619e-08)
(0.000817964 -2.34163e-07 8.69131e-08)
(0.000816622 -1.56119e-07 5.92937e-08)
(0.000814927 -7.32143e-08 7.31451e-08)
(0.00081338 -1.68804e-07 3.17903e-09)
(0.000811942 -1.31765e-07 4.77279e-08)
(0.000810402 -9.674e-08 6.2266e-08)
(0.000808867 -7.68776e-08 7.49482e-08)
(0.000807239 4.42608e-08 4.74046e-08)
(0.000805804 8.2713e-08 4.88609e-08)
(0.000804142 4.05519e-07 9.09461e-08)
(0.00080251 -6.19485e-08 7.77695e-08)
(0.000800906 -3.76721e-07 7.83805e-08)
(0.000799054 -4.3163e-07 2.63096e-08)
(0.000797736 -2.76361e-07 5.38477e-08)
(0.000796782 1.00877e-07 7.9608e-08)
(0.000795452 1.70869e-07 4.59961e-08)
(0.000793618 1.38926e-07 5.97422e-08)
(0.000791823 1.66416e-07 9.93051e-08)
(0.000790119 3.0277e-07 3.46477e-08)
(0.000789215 5.76923e-07 7.84322e-08)
(0.000788131 2.04945e-07 5.65338e-08)
(0.000786315 -5.90074e-09 2.79863e-08)
(0.00078474 -1.05131e-07 7.95883e-08)
(0.000783761 -4.94419e-07 9.48888e-08)
(0.000782073 -4.6193e-07 8.153e-09)
(0.000780194 -2.09905e-07 3.1407e-08)
(0.000778943 -7.41047e-08 4.72994e-08)
(0.000777627 3.26928e-08 1.91719e-08)
(0.000776393 -1.14069e-07 6.35846e-08)
(0.000774688 -3.92829e-07 4.81975e-08)
(0.000773078 -3.26049e-07 1.2618e-08)
(0.0011868 -1.92856e-05 -9.35911e-06)
(0.00281711 0.000960629 0.000131268)
(-0.000535371 -0.00972523 3.51747e-05)
(0.00215481 -9.93808e-05 -0.000207953)
(-0.00245544 -0.00107333 2.09702e-05)
(-0.00131146 -0.00144099 -9.3105e-06)
(0.001387 0.000361176 -1.92797e-05)
(0.000464051 2.53379e-06 -8.41396e-07)
(0.000884806 1.14365e-05 -1.04511e-06)
(0.000817708 5.888e-07 -4.63824e-07)
(0.000832578 5.11057e-07 1.86647e-07)
(0.000829392 -3.68814e-08 4.22958e-08)
(0.000828911 -1.3784e-07 6.34988e-08)
(0.000827486 -4.01992e-07 5.27164e-08)
(0.000826123 -2.58421e-07 5.09763e-08)
(0.000824388 -2.03578e-07 2.94119e-08)
(0.000822647 -4.76288e-08 5.60756e-08)
(0.000821435 -1.42404e-08 5.71537e-08)
(0.000819709 -1.00805e-07 1.15236e-07)
(0.000817898 2.46585e-08 3.19142e-08)
(0.000816443 2.9487e-08 8.55355e-08)
(0.000814775 9.06809e-08 6.21396e-08)
(0.000813269 5.0876e-07 4.02662e-07)
(0.000811955 2.55302e-07 5.22049e-08)
(0.000810426 7.00353e-09 6.03827e-08)
(0.000808812 -1.41425e-07 4.91124e-08)
(0.000807328 -2.1439e-07 9.81596e-08)
(0.000806072 -2.94327e-07 4.98882e-08)
(0.000804023 -8.3005e-07 1.68999e-07)
(0.000801874 -4.65627e-07 2.79951e-08)
(0.000800761 -3.06853e-07 -1.25183e-07)
(0.000799515 -4.49635e-08 2.27383e-08)
(0.000798325 6.67763e-07 1.64327e-07)
(0.000796986 6.21141e-07 1.01188e-07)
(0.000795175 2.36674e-07 4.82792e-08)
(0.000793598 1.41829e-07 3.54365e-08)
(0.000792278 2.13917e-07 4.66222e-08)
(0.000791008 4.01337e-07 1.47711e-08)
(0.000789083 6.88515e-07 8.95066e-08)
(0.000787187 4.0719e-07 2.81902e-07)
(0.000785881 1.27049e-07 3.77569e-08)
(0.000784447 -5.16171e-08 7.02849e-08)
(0.00078299 -2.01497e-07 -1.66655e-08)
(0.000782073 -4.89783e-07 9.75592e-08)
(0.000780884 -1.21687e-07 5.22452e-08)
(0.000779245 -7.28707e-08 6.96217e-08)
(0.000777618 9.90709e-08 7.77353e-08)
(0.000775977 -2.1781e-08 4.5328e-08)
(0.000774641 -1.3724e-07 -7.46016e-08)
(0.00077364 -1.93331e-07 1.11216e-07)
(-0.00251492 -0.00279171 0.000269312)
(-0.00141918 0.00620457 -0.000191379)
(0.00195846 -0.0062657 -0.000166495)
(0.00675438 0.00726887 0.000266831)
(-0.00365615 -0.00400779 -0.000143533)
(-0.000100796 -0.000229413 -8.3889e-05)
(0.000980664 -0.000133788 4.86954e-05)
(0.000474941 -1.70256e-05 1.55594e-07)
(0.000881388 -1.25106e-05 -2.13294e-06)
(0.000821865 -4.05741e-06 -4.09242e-07)
(0.000833606 -2.49412e-06 1.55999e-07)
(0.000830104 -1.17088e-06 3.60134e-08)
(0.000829243 -7.7112e-07 5.73708e-08)
(0.00082765 -5.4938e-07 5.29571e-08)
(0.000825991 -4.38971e-07 5.47913e-08)
(0.000824599 -4.94987e-07 5.83554e-08)
(0.000823094 -3.71639e-07 3.90726e-08)
(0.000821257 -2.6033e-07 9.50519e-08)
(0.00081962 -5.27944e-07 1.28278e-07)
(0.000818127 -2.19065e-07 4.15258e-08)
(0.000816704 -1.44649e-07 3.48152e-08)
(0.000815524 -2.33444e-08 4.78338e-08)
(0.000813583 1.67321e-08 4.54797e-08)
(0.000811312 1.70116e-07 8.43732e-08)
(0.000809905 1.08739e-07 5.29675e-08)
(0.00080859 7.27085e-08 3.64905e-08)
(0.00080705 -2.25085e-08 7.81141e-08)
(0.000805038 -1.01359e-07 5.87684e-08)
(0.000803933 -3.34514e-07 -5.85425e-08)
(0.000803169 2.95963e-07 -6.32225e-08)
(0.000801436 4.69709e-07 2.27445e-07)
(0.000800272 5.29778e-07 5.26872e-08)
(0.000798566 4.37031e-07 -3.19911e-08)
(0.000796239 1.89506e-07 -6.11162e-10)
(0.00079485 3.58478e-08 8.25733e-08)
(0.000793588 1.06423e-07 5.43725e-08)
(0.000792145 7.99778e-08 5.47907e-08)
(0.000790708 -3.2989e-08 5.54084e-08)
(0.000789217 -2.10245e-07 2.58374e-08)
(0.000787425 -1.77455e-07 9.26922e-08)
(0.000785739 -4.30858e-08 -1.86766e-08)
(0.00078433 8.0381e-08 7.23822e-08)
(0.000783216 3.39324e-07 1.32104e-07)
(0.000782176 4.64535e-07 7.69506e-08)
(0.000780718 2.41029e-07 9.63752e-08)
(0.00077922 1.64488e-07 1.11055e-07)
(0.000777692 1.48565e-07 4.14422e-08)
(0.000776098 3.52724e-07 7.80891e-08)
(0.00077448 2.20385e-07 5.7539e-08)
(0.000773488 1.38614e-07 1.24619e-07)
(-0.0318349 -0.0319284 0.0037891)
(0.00413804 0.00251605 0.000920557)
(-0.00722531 -0.00302827 6.95321e-05)
(0.00796555 0.00929345 0.00018992)
(-0.0181275 0.0132797 0.0015944)
(0.0227348 -0.000568245 5.61249e-07)
(0.00245824 0.000404862 8.34061e-06)
(0.000477994 -7.35361e-05 3.61666e-05)
(0.000886798 -1.34162e-05 -1.89768e-06)
(0.000830567 -3.12699e-07 -6.61921e-08)
(0.000836244 -1.74942e-06 1.14159e-07)
(0.000831582 -9.14406e-07 -6.27663e-09)
(0.00082971 -6.90417e-07 5.20811e-08)
(0.000827915 -4.47075e-07 5.25272e-08)
(0.0008262 -2.87895e-07 5.22174e-08)
(0.000824479 -1.3211e-07 5.50548e-08)
(0.000822946 -2.50084e-07 6.01789e-08)
(0.000821244 -2.57388e-07 -5.79449e-09)
(0.000819765 -2.79483e-07 4.04621e-08)
(0.000818381 -4.64344e-07 3.35867e-08)
(0.000816689 -1.9528e-07 6.63008e-08)
(0.000814977 -2.64112e-07 5.25345e-08)
(0.00081351 -5.39936e-07 -2.42381e-09)
(0.000812068 -2.38668e-07 6.16298e-08)
(0.000810303 2.94546e-08 2.73249e-08)
(0.000808647 1.95386e-07 3.16099e-08)
(0.00080711 3.2081e-07 6.15534e-08)
(0.000805683 5.0734e-07 5.92566e-08)
(0.000804519 1.01492e-06 3.53399e-08)
(0.000802877 6.1026e-07 5.74814e-08)
(0.000801049 4.05671e-07 1.36343e-08)
(0.00079947 4.8459e-07 1.62354e-08)
(0.000797896 -1.14318e-07 4.46619e-08)
(0.000796483 -1.16269e-07 5.27242e-08)
(0.00079507 4.56235e-08 7.27841e-08)
(0.000793652 2.13865e-08 4.38959e-08)
(0.000792104 5.44206e-08 5.24287e-08)
(0.000790646 -4.53463e-08 7.93817e-08)
(0.000788904 -2.94702e-07 1.67058e-08)
(0.000787397 -4.14521e-07 -1.88989e-08)
(0.000786203 -1.28346e-07 4.65231e-08)
(0.000784924 4.44744e-08 5.32082e-08)
(0.000783467 4.18225e-07 1.31484e-07)
(0.000781946 2.25405e-07 4.79105e-08)
(0.000780505 4.65162e-08 -3.7775e-09)
(0.000779127 5.32406e-08 4.482e-08)
(0.00077785 1.16592e-07 8.14539e-08)
(0.000776065 3.1091e-07 4.82355e-08)
(0.000774369 1.66142e-07 4.37427e-08)
(0.000773191 2.63052e-07 1.53903e-07)
(-0.00175406 -0.00120496 0.00302746)
(-0.0186703 0.0011852 -0.00296396)
(-0.00312908 0.00046775 0.00122085)
(-0.0268843 -0.000193312 0.000535314)
(0.00726297 -0.00585199 0.000430514)
(0.0151922 -0.00120625 0.00063471)
(-7.55478e-05 -0.000454826 -7.7076e-06)
(0.000852989 -7.31632e-05 8.94868e-06)
(0.000822926 -2.65438e-06 -2.99635e-06)
(0.000836205 2.71371e-06 1.92442e-07)
(0.000832885 -1.64965e-07 5.29206e-08)
(0.000831453 -4.38965e-07 3.15954e-07)
(0.000829842 -3.15299e-07 1.48612e-07)
(0.000828162 -2.4282e-07 5.27894e-08)
(0.000826391 -1.67754e-07 4.29853e-08)
(0.000824649 -5.93209e-08 4.02637e-08)
(0.00082294 7.26756e-08 5.48659e-08)
(0.000821223 2.94235e-08 5.35018e-08)
(0.000819364 2.55452e-07 5.2817e-08)
(0.000818236 3.77763e-07 -2.79862e-09)
(0.000816957 3.74802e-10 6.81614e-08)
(0.000815097 1.7114e-07 1.84775e-08)
(0.000813618 2.32344e-07 3.42974e-07)
(0.000812026 1.0181e-07 9.99137e-08)
(0.000810448 5.70714e-08 7.4016e-08)
(0.000808953 -1.15971e-08 6.78128e-08)
(0.000807436 2.10871e-07 6.99653e-08)
(0.0008059 3.2552e-07 3.77497e-08)
(0.000804054 4.06769e-07 2.28911e-07)
(0.000802399 2.19556e-07 2.53835e-08)
(0.000801272 1.04133e-07 5.7633e-08)
(0.000799617 -2.1219e-07 5.00582e-08)
(0.000797812 4.55651e-08 4.20322e-08)
(0.000796438 2.17577e-08 5.17474e-08)
(0.000795022 6.23567e-08 4.03961e-08)
(0.000793598 -8.28937e-08 4.91643e-08)
(0.000792062 -2.08369e-07 3.28647e-08)
(0.000790273 -2.18244e-07 6.36494e-08)
(0.000788759 -2.21797e-07 4.45684e-08)
(0.000787636 -1.08932e-07 -6.98373e-08)
(0.000786314 6.43483e-08 7.71231e-08)
(0.000785012 2.42012e-07 1.18786e-07)
(0.000783439 2.76207e-08 4.10466e-08)
(0.000781709 7.05069e-08 8.09901e-08)
(0.000780501 -1.16189e-07 1.16567e-07)
(0.000779308 -2.14527e-07 5.14362e-08)
(0.000778013 -5.00287e-07 8.13993e-09)
(0.000776159 -8.43148e-07 -1.94189e-08)
(0.000774414 -3.20427e-07 6.44924e-08)
(0.000772954 3.30682e-08 5.04265e-08)
(0.00707771 0.00375698 0.00916381)
(0.00456309 0.00542465 0.000387841)
(-3.54205e-05 -0.00677363 -0.00217774)
(0.00270662 -0.00357981 -0.00150915)
(-0.00505462 -0.00342997 -0.000133983)
(0.0034923 0.00123917 0.000249253)
(0.00148138 -0.000558214 7.64575e-06)
(0.00109433 -3.92574e-06 2.56952e-06)
(0.000819614 2.15081e-06 -2.91686e-06)
(0.000833435 -4.35414e-06 2.51328e-07)
(0.000832298 -9.97528e-07 1.0508e-07)
(0.000831397 -5.78579e-07 6.9933e-08)
(0.000829959 -1.71186e-07 1.14359e-07)
(0.000828102 -8.96479e-08 5.26246e-08)
(0.000826432 -1.95024e-08 1.49421e-07)
(0.000824781 2.65698e-08 9.28301e-08)
(0.000823058 8.85594e-08 5.16675e-08)
(0.000821472 2.09887e-07 3.30379e-08)
(0.000820199 2.48606e-07 4.06294e-08)
(0.00081806 6.61395e-07 1.42169e-07)
(0.00081643 5.23477e-07 6.91208e-09)
(0.000815266 3.57319e-07 3.56751e-07)
(0.000813423 2.82459e-07 5.04611e-08)
(0.000811849 1.93616e-07 8.42942e-08)
(0.000810161 2.22024e-07 6.00304e-08)
(0.000808839 2.25553e-07 2.18679e-08)
(0.00080753 2.63798e-08 3.69869e-08)
(0.000805925 -5.68468e-08 1.08939e-08)
(0.000804383 2.28661e-07 2.43995e-08)
(0.000802496 -5.75072e-08 -4.42907e-08)
(0.000800508 -2.29023e-07 2.15823e-08)
(0.000799395 -3.43943e-07 -7.50333e-09)
(0.000798189 -2.88875e-07 1.14984e-08)
(0.000796503 -1.87543e-07 5.08871e-08)
(0.000794938 -2.04838e-07 3.9479e-08)
(0.000793314 -1.52617e-07 4.57185e-08)
(0.000791936 -1.90619e-07 7.57981e-08)
(0.000790631 -7.80953e-08 6.68423e-08)
(0.000789042 1.23102e-07 7.21197e-08)
(0.000787756 1.95608e-07 5.41527e-08)
(0.000786642 2.05714e-07 7.80259e-08)
(0.000784878 1.68927e-07 1.32548e-08)
(0.000783253 -6.19894e-08 4.89287e-08)
(0.000781767 -5.16719e-08 -2.05088e-08)
(0.000780151 -5.97889e-08 4.04227e-08)
(0.00077865 -1.97502e-07 4.65488e-08)
(0.000777069 -5.16899e-07 -6.41229e-08)
(0.000776294 -7.17973e-07 7.34054e-08)
(0.000775466 -4.78657e-07 9.12469e-08)
(0.000773551 -3.30519e-07 1.31775e-07)
(0.00917337 0.0219744 0.0059877)
(-0.0135256 0.00943852 0.000977996)
(0.003953 0.00601535 -0.000740327)
(0.000375757 0.016007 -0.000348649)
(0.00427764 -0.0052048 -0.000227734)
(-0.00460778 -0.0028995 -0.000253884)
(0.000746449 -0.00106698 -1.6866e-05)
(0.000467523 8.78512e-05 5.84792e-05)
(0.000891342 5.96028e-06 -2.05819e-06)
(0.000832444 -2.58397e-06 -4.04492e-07)
(0.000837605 2.58306e-07 1.04841e-07)
(0.000832479 2.25721e-07 1.70885e-08)
(0.000830448 2.26778e-07 4.64351e-08)
(0.000828348 1.70652e-07 4.95116e-08)
(0.000826533 1.14173e-07 5.11889e-08)
(0.000824783 1.26826e-07 5.23882e-08)
(0.000823168 1.48617e-07 5.09179e-08)
(0.000821422 2.10121e-07 6.97698e-08)
(0.000819925 2.1196e-07 4.78235e-08)
(0.000818575 -1.35073e-07 6.37153e-08)
(0.000816573 2.85869e-07 8.65008e-08)
(0.000814792 6.32068e-08 4.81673e-08)
(0.000813411 9.52486e-08 4.1133e-08)
(0.000811949 4.57574e-08 5.63918e-08)
(0.000810486 1.05632e-07 5.58072e-09)
(0.000808707 1.85623e-07 8.74882e-08)
(0.000807083 -8.59709e-08 6.61295e-08)
(0.000806153 -2.55566e-07 4.45314e-08)
(0.000804054 -1.01697e-06 -7.68529e-08)
(0.000801829 -9.11571e-07 4.76014e-08)
(0.000800917 -5.2055e-07 -7.094e-08)
(0.000799546 -9.84292e-08 1.73169e-07)
(0.00079801 -1.70049e-07 4.28289e-08)
(0.000796546 -1.33057e-07 1.59007e-08)
(0.000795067 -1.53558e-07 7.0858e-08)
(0.000793618 -6.02338e-09 7.41373e-08)
(0.000792156 1.00876e-07 5.35148e-08)
(0.000790666 1.15795e-07 7.03395e-08)
(0.0007891 1.198e-07 4.88547e-08)
(0.000787738 3.93641e-07 1.44473e-08)
(0.00078628 1.46277e-07 6.02143e-08)
(0.000784677 -5.44881e-09 -5.28632e-09)
(0.000783164 -1.28401e-08 7.19341e-08)
(0.000781712 -1.07439e-07 2.74301e-08)
(0.000780321 -1.7488e-08 1.30857e-08)
(0.000778739 1.96414e-08 4.98049e-08)
(0.000777367 -3.8847e-09 -3.9387e-08)
(0.000776212 1.59048e-07 5.49967e-08)
(0.000774908 -2.19427e-07 3.39399e-08)
(0.000773964 -3.18557e-07 5.139e-08)
(0.00797968 -0.00326374 -0.000232633)
(-0.00282659 0.0122895 -0.000964446)
(-0.00760483 0.00740245 0.000180434)
(0.0037716 -0.0129196 0.00292532)
(-0.00226825 -0.000970974 -0.000319002)
(0.00127657 -0.00012995 -0.00032528)
(0.00134044 -0.000171009 1.39847e-05)
(0.000375388 2.41928e-05 1.14101e-05)
(0.00088776 9.21536e-06 -1.56677e-06)
(0.000826456 3.3254e-06 -3.91846e-07)
(0.000835777 2.24428e-06 1.59693e-07)
(0.000831332 1.2806e-06 3.66608e-08)
(0.000829873 8.05879e-07 5.69468e-08)
(0.00082795 4.54525e-07 5.18028e-08)
(0.00082637 3.04488e-07 9.55048e-08)
(0.000824819 1.72262e-07 5.37742e-08)
(0.000823158 7.555e-08 9.61729e-08)
(0.000821548 6.43903e-08 5.7727e-08)
(0.000819766 1.63393e-07 -1.55071e-07)
(0.000818151 -1.56418e-08 3.26221e-08)
(0.000816677 -1.93426e-07 4.96493e-08)
(0.000815027 -6.21904e-08 6.39501e-08)
(0.000813401 -1.42725e-07 3.85855e-08)
(0.000811861 -8.3039e-08 5.04446e-08)
(0.000810335 -2.46876e-07 5.75731e-08)
(0.000808599 -3.11718e-07 -1.22775e-07)
(0.000806979 -1.59345e-07 -1.84279e-07)
(0.000804764 -3.11307e-07 5.17891e-08)
(0.000803569 -6.1205e-07 1.971e-07)
(0.000803123 -7.96302e-08 9.24778e-08)
(0.000801529 1.65494e-07 1.1617e-07)
(0.000799836 5.62288e-08 4.34885e-08)
(0.000798147 1.33011e-07 6.18048e-08)
(0.000796525 1.62298e-07 4.99239e-08)
(0.000795098 8.3938e-08 4.7392e-08)
(0.000793633 -1.2994e-07 6.2422e-08)
(0.000792088 -1.09974e-07 6.22471e-08)
(0.000790654 -1.72128e-07 6.05182e-08)
(0.000789388 1.05795e-08 4.52701e-08)
(0.000787788 5.77774e-08 9.62284e-08)
(0.000786141 -2.37102e-08 3.14773e-08)
(0.000784678 7.50901e-08 4.08231e-08)
(0.000783125 7.38594e-08 3.9817e-08)
(0.000781762 1.28871e-07 5.13368e-08)
(0.00078031 1.05562e-07 4.56235e-08)
(0.000778668 1.38957e-07 4.85478e-08)
(0.000777244 4.6076e-07 4.33241e-08)
(0.000776026 3.41391e-07 5.37526e-08)
(0.000774878 1.99608e-07 5.42891e-08)
(0.000774221 -3.27894e-08 7.6898e-08)
(0.0131483 0.00280147 -0.000687163)
(0.00108322 -0.00240096 0.000903972)
(-0.00525546 -0.00885399 -0.000144158)
(-0.0243293 0.00947438 0.000280168)
(0.00411369 -0.00218189 -0.000394778)
(-0.00243646 -0.00411671 -0.000311125)
(0.000315084 -0.00044734 6.90222e-05)
(0.000475477 5.41654e-07 3.84233e-07)
(0.000892524 9.30805e-06 -1.54328e-06)
(0.000823567 5.20246e-06 -5.26498e-07)
(0.000834989 2.65605e-06 1.42711e-07)
(0.000830642 1.54055e-06 -1.99924e-08)
(0.000829392 8.53859e-07 5.17892e-08)
(0.000827707 3.15538e-07 5.25317e-08)
(0.000826172 3.05623e-07 1.04642e-07)
(0.000824491 2.36938e-07 1.15594e-07)
(0.000823029 1.64959e-07 9.53337e-08)
(0.000821529 5.53805e-08 3.19623e-08)
(0.000819823 -5.34808e-08 5.26338e-08)
(0.000818129 2.10538e-07 5.86226e-08)
(0.000816515 1.45243e-08 5.22257e-08)
(0.000814857 -1.37788e-07 8.24725e-08)
(0.000813386 -1.7552e-07 -1.188e-08)
(0.000811821 -1.85918e-07 5.39934e-08)
(0.000810203 -1.74703e-07 4.1542e-08)
(0.000808819 -1.69857e-07 3.94841e-08)
(0.000807086 -1.46653e-07 3.0255e-08)
(0.00080559 -5.13076e-08 9.87176e-08)
(0.000804345 5.39194e-07 2.39125e-08)
(0.000802802 4.58001e-07 7.80372e-08)
(0.000801086 3.23429e-07 -2.07764e-08)
(0.000799504 2.12472e-07 1.0778e-07)
(0.000798142 -3.61867e-08 -3.51509e-07)
(0.000796483 -1.79083e-07 6.3732e-08)
(0.000794702 -1.15516e-07 2.66178e-08)
(0.000793376 -1.56432e-07 -4.00438e-09)
(0.000792105 -1.389e-07 6.72725e-08)
(0.000790817 -1.67331e-07 5.45808e-08)
(0.000789388 -2.6468e-07 9.50359e-08)
(0.000787695 -3.12199e-07 3.97302e-08)
(0.000786301 -1.61638e-07 5.70382e-08)
(0.000784799 -2.11813e-07 -4.23619e-08)
(0.000783231 1.40314e-07 4.2082e-08)
(0.000781751 3.43274e-08 8.98752e-08)
(0.000780333 1.02554e-07 5.54008e-08)
(0.000779181 1.04503e-07 5.09027e-08)
(0.000777617 3.22915e-07 3.82973e-08)
(0.000775883 4.45445e-07 4.13217e-08)
(0.000774439 7.12299e-07 -7.02975e-08)
(0.000773753 4.72924e-07 8.89373e-08)
(0.00604674 0.00162657 -0.000227269)
(0.00262004 -0.00299548 0.000120157)
(0.000495473 0.0086598 0.000599968)
(-0.000743194 0.00125934 0.000489651)
(0.00141054 -0.00355515 -0.000321526)
(0.00476397 0.00539672 0.000272518)
(0.00115013 -0.000266083 -1.54378e-05)
(0.000475177 4.25419e-06 1.04711e-06)
(0.000863798 -9.34731e-06 -1.42303e-06)
(0.000817875 7.53561e-07 -2.97296e-07)
(0.000831148 -8.38314e-09 2.20123e-07)
(0.000829049 2.49269e-07 5.0011e-08)
(0.000828324 1.93565e-07 1.19893e-07)
(0.000827254 4.8419e-07 7.632e-08)
(0.000826265 2.61329e-07 5.45428e-08)
(0.000824638 1.36857e-07 7.17946e-08)
(0.000822928 1.33604e-07 4.72712e-08)
(0.000821273 -2.64886e-09 8.60412e-08)
(0.000819958 -3.17113e-08 7.67708e-08)
(0.000818235 -2.06068e-07 3.28186e-08)
(0.000816241 -1.64258e-07 3.00656e-08)
(0.00081479 -1.21696e-07 1.67792e-07)
(0.000813343 -1.08558e-07 5.36116e-08)
(0.000811865 -1.27211e-07 4.9713e-08)
(0.000810358 -1.16056e-08 6.78822e-08)
(0.000808636 3.22048e-08 5.21999e-08)
(0.000807129 2.65454e-08 5.42814e-08)
(0.000805622 1.5514e-07 5.1007e-08)
(0.000804204 1.98523e-07 3.08603e-08)
(0.000802851 -7.49543e-09 2.95067e-08)
(0.00080122 -3.52883e-08 1.4305e-07)
(0.000799386 -1.51912e-07 2.47568e-09)
(0.000797658 -3.97582e-07 -9.95537e-08)
(0.000796427 -4.79627e-07 2.85909e-08)
(0.000795128 -1.61397e-07 3.9247e-08)
(0.000793605 1.19342e-07 3.2059e-08)
(0.000792076 3.2255e-08 2.45681e-08)
(0.000790499 -1.05767e-07 5.19114e-08)
(0.00078921 -5.27494e-07 5.52912e-08)
(0.000787919 -2.46053e-07 6.01976e-08)
(0.00078627 -1.80707e-07 6.05569e-08)
(0.000785057 -2.36875e-07 8.33009e-08)
(0.000783434 -2.28598e-07 5.98991e-08)
(0.000781714 1.87179e-07 7.96955e-08)
(0.000780397 2.9398e-08 4.9335e-08)
(0.000778941 7.81746e-08 1.84672e-08)
(0.000777666 -1.59524e-07 8.34319e-08)
(0.000776507 8.74536e-08 3.48306e-08)
(0.000774897 2.50147e-07 -1.30471e-08)
(0.000772744 2.93587e-07 6.81245e-08)
(-0.00346298 0.00225011 0.000830685)
(-0.0052099 0.00274481 -0.000508739)
(-0.00148491 0.000995463 0.000666644)
(0.00366924 0.00760581 0.00119603)
(0.00535242 -0.0113744 -0.000229236)
(0.00941177 -0.00271122 0.000221447)
(0.000847741 6.01883e-05 7.40828e-06)
(0.00141364 -8.73756e-06 2.22096e-07)
(0.0014214 -2.3073e-06 3.56617e-07)
(0.00138896 -3.53766e-06 3.69404e-07)
(0.00138792 -1.31425e-06 3.94187e-07)
(0.00138269 -8.24188e-07 3.38429e-07)
(0.00138096 -3.63001e-07 2.70698e-07)
(0.00137806 2.13313e-07 3.84576e-07)
(0.00137488 1.31482e-07 3.5631e-07)
(0.00137255 2.0889e-07 5.54185e-07)
(0.00137008 -8.39174e-08 3.4564e-07)
(0.00136759 -7.58313e-08 3.51861e-07)
(0.00136468 1.4346e-07 3.8576e-07)
(0.00136201 -3.70501e-07 3.64017e-07)
(0.00135978 -2.08157e-07 3.86912e-07)
(0.00135694 -2.64069e-08 3.98426e-07)
(0.00135436 -1.72259e-07 2.91288e-07)
(0.00135198 -1.65785e-07 2.96413e-07)
(0.00134942 -7.76635e-08 3.48777e-07)
(0.00134685 -3.16303e-08 3.58298e-07)
(0.00134417 1.26125e-07 2.85957e-07)
(0.00134184 1.32314e-07 3.38142e-07)
(0.001339 6.37099e-07 4.41763e-07)
(0.00133619 -1.88117e-07 3.60552e-07)
(0.00133358 -7.71247e-07 3.64217e-07)
(0.00133048 -7.69284e-07 2.18694e-07)
(0.00132832 -4.52182e-07 3.41406e-07)
(0.0013268 1.43806e-07 3.12335e-07)
(0.00132455 3.20467e-07 3.23503e-07)
(0.00132151 3.04171e-07 3.27492e-07)
(0.00131845 3.05053e-07 3.98102e-07)
(0.00131559 5.13295e-07 3.21309e-07)
(0.00131402 9.8588e-07 2.96067e-07)
(0.00131224 4.46024e-07 3.16973e-07)
(0.0013093 3.06288e-08 2.90375e-07)
(0.00130666 -1.51804e-07 3.21698e-07)
(0.00130501 -8.11605e-07 3.55069e-07)
(0.00130219 -7.01147e-07 2.16375e-07)
(0.00129914 -3.52263e-07 2.79542e-07)
(0.001297 -1.85783e-07 3.39487e-07)
(0.00129473 -1.0934e-08 2.42027e-07)
(0.00129269 -2.56146e-07 3.40207e-07)
(0.00128982 -6.49299e-07 3.56974e-07)
(0.00128707 -5.27372e-07 2.31836e-07)
(0.00124636 -0.00477315 0.000359748)
(0.00513112 0.00275849 6.42881e-06)
(0.0024023 -0.0058579 0.000197035)
(0.00785768 0.00290656 -0.000106956)
(0.0027483 0.00135044 -0.000783947)
(0.00169644 -0.00339305 0.000112036)
(0.000799222 -0.000284563 -0.000147894)
(0.00138181 -1.25161e-06 3.85722e-07)
(0.00147224 1.52367e-05 4.19581e-07)
(0.00136096 -1.30335e-06 3.39428e-07)
(0.00138576 -5.94845e-07 3.459e-07)
(0.0013807 -9.60782e-07 3.45246e-07)
(0.00138002 -7.84598e-07 3.45764e-07)
(0.00137774 -9.7408e-07 3.45062e-07)
(0.00137553 -6.3434e-07 3.4417e-07)
(0.00137271 -5.10813e-07 2.84505e-07)
(0.00136987 -1.77249e-07 3.47678e-07)
(0.00136779 -1.06487e-07 1.92447e-07)
(0.00136492 -1.87191e-07 5.37284e-07)
(0.00136195 2.91191e-08 3.217e-07)
(0.00135953 8.25081e-08 3.8498e-07)
(0.00135675 1.64013e-07 3.81747e-07)
(0.00135416 8.42224e-07 1.17733e-06)
(0.00135199 4.77678e-07 5.92843e-07)
(0.00134949 7.52563e-08 3.54774e-07)
(0.00134674 -1.76843e-07 3.3122e-07)
(0.00134424 -2.95492e-07 4.8459e-07)
(0.00134214 -4.85586e-07 3.37761e-07)
(0.00133875 -1.42551e-06 5.62851e-07)
(0.00133517 -8.27537e-07 2.12004e-08)
(0.00133338 -5.56143e-07 5.88858e-08)
(0.0013314 -1.41014e-07 2.83499e-07)
(0.00132931 1.10518e-06 5.23881e-07)
(0.00132706 1.05178e-06 4.60202e-07)
(0.00132412 4.04859e-07 3.38305e-07)
(0.00132142 2.20568e-07 3.18818e-07)
(0.00131918 3.36516e-07 3.19773e-07)
(0.00131707 6.58974e-07 1.12287e-07)
(0.00131393 1.1403e-06 4.36155e-07)
(0.00131075 7.43103e-07 6.21105e-07)
(0.00130848 2.3149e-07 1.36457e-07)
(0.00130608 -7.13651e-08 3.71903e-07)
(0.00130373 -3.37495e-07 3.26311e-07)
(0.0013022 -8.26337e-07 5.05728e-07)
(0.00130013 -2.46641e-07 3.55847e-07)
(0.00129743 -1.97193e-07 3.36583e-07)
(0.00129479 1.49428e-07 3.82817e-07)
(0.00129207 -6.25749e-08 3.02001e-07)
(0.00128978 -2.7951e-07 9.10894e-08)
(0.00128809 -3.40125e-07 4.12676e-07)
(-0.000247102 -0.00526726 0.000549859)
(-0.0024197 0.00592009 -0.000410736)
(0.00370389 -0.00309402 -0.000368883)
(0.00682103 0.00515683 0.00132041)
(0.00456288 0.00313625 0.000609245)
(-0.00616506 0.0014807 -0.00160177)
(0.00068441 0.000760719 2.51917e-05)
(0.00141072 -6.01064e-05 4.15339e-06)
(0.00146876 -2.46435e-05 -3.71161e-07)
(0.00136928 -9.20143e-06 3.39829e-07)
(0.00138841 -5.69261e-06 3.47323e-07)
(0.00138249 -2.91094e-06 3.46063e-07)
(0.00138098 -1.88167e-06 3.45485e-07)
(0.00137827 -1.27386e-06 3.45445e-07)
(0.00137548 -9.45447e-07 3.44489e-07)
(0.00137313 -9.40611e-07 3.42869e-07)
(0.00137059 -6.99202e-07 2.94467e-07)
(0.00136758 -5.10228e-07 3.47951e-07)
(0.00136486 -9.09076e-07 4.38798e-07)
(0.00136234 -4.04174e-07 3.22793e-07)
(0.00135994 -2.87791e-07 2.77545e-07)
(0.00135789 -6.22181e-08 3.38565e-07)
(0.00135475 5.20994e-08 3.07545e-07)
(0.00135102 3.34167e-07 3.03728e-07)
(0.0013486 1.70464e-07 3.4872e-07)
(0.00134639 1.40217e-07 3.13343e-07)
(0.00134379 -1.9198e-09 3.40953e-07)
(0.00134043 -1.15441e-07 3.2323e-07)
(0.00133858 -5.09753e-07 1.4929e-07)
(0.00133729 5.51721e-07 2.11113e-07)
(0.00133445 8.98503e-07 8.78235e-07)
(0.00133256 9.36566e-07 4.80255e-07)
(0.00132981 7.01263e-07 1.74133e-07)
(0.00132592 3.55209e-07 1.7804e-07)
(0.00132351 6.10001e-08 3.58129e-07)
(0.00132142 1.47294e-07 3.41542e-07)
(0.001319 1.44943e-07 2.85923e-07)
(0.00131659 -2.35819e-08 3.56695e-07)
(0.00131412 -2.96355e-07 3.11542e-07)
(0.0013111 -2.96987e-07 4.11681e-07)
(0.00130828 -7.66865e-08 1.00745e-08)
(0.00130595 1.56934e-07 3.88311e-07)
(0.00130407 6.46373e-07 5.36491e-07)
(0.00130231 7.96885e-07 3.69499e-07)
(0.00129993 4.91962e-07 3.16482e-07)
(0.0012975 3.57982e-07 4.09865e-07)
(0.0012949 3.15424e-07 3.16451e-07)
(0.00129216 5.74619e-07 3.53241e-07)
(0.00128949 3.50395e-07 3.34984e-07)
(0.00128784 2.2013e-07 5.28399e-07)
(-0.00677627 -0.0319201 -0.00602274)
(0.00817459 -0.00128949 0.00270934)
(-0.00222276 -0.00767002 0.000221651)
(-0.00328412 0.00551491 0.000381212)
(-0.000113197 -0.0186886 0.0011549)
(0.0428379 -0.000668831 0.000327704)
(0.00262934 -0.000611468 -2.35059e-05)
(0.00104351 -4.50992e-05 5.81472e-05)
(0.00148065 -2.50556e-05 2.90391e-07)
(0.0013853 -2.2802e-06 6.70714e-07)
(0.00139374 -3.97762e-06 3.51127e-07)
(0.00138553 -2.16688e-06 3.29322e-07)
(0.00138211 -1.57222e-06 3.45554e-07)
(0.00137894 -9.89861e-07 3.45378e-07)
(0.00137597 -6.05918e-07 3.43995e-07)
(0.00137303 -2.8339e-07 3.43157e-07)
(0.00137042 -4.59321e-07 3.43235e-07)
(0.00136754 -4.24352e-07 2.17257e-07)
(0.00136506 -4.92822e-07 3.32587e-07)
(0.00136273 -7.64768e-07 3.11191e-07)
(0.00135996 -3.68953e-07 2.61176e-07)
(0.00135717 -4.56047e-07 3.3747e-07)
(0.00135466 -8.57229e-07 1.79953e-07)
(0.00135214 -4.11116e-07 3.92541e-07)
(0.00134924 2.17563e-08 2.81217e-07)
(0.00134653 3.09719e-07 2.76682e-07)
(0.00134392 5.28497e-07 3.96074e-07)
(0.0013415 8.79808e-07 3.98746e-07)
(0.00133958 1.78229e-06 2.71036e-07)
(0.00133692 1.11464e-06 3.23244e-07)
(0.00133385 8.27818e-07 3.30437e-07)
(0.00133114 9.56625e-07 2.5398e-07)
(0.00132858 -5.88729e-08 3.25368e-07)
(0.00132625 -1.59194e-07 3.32912e-07)
(0.00132386 9.57376e-08 3.4554e-07)
(0.00132153 3.39974e-08 3.16274e-07)
(0.00131897 5.23712e-08 3.31004e-07)
(0.00131652 -1.11531e-07 3.74943e-07)
(0.00131359 -5.53331e-07 2.05898e-07)
(0.00131103 -7.23994e-07 1.84189e-07)
(0.00130905 -1.97772e-07 3.22917e-07)
(0.00130699 1.24842e-07 4.81574e-07)
(0.00130453 6.99963e-07 4.83761e-07)
(0.001302 4.5141e-07 3.53116e-07)
(0.00129957 1.07709e-07 2.87451e-07)
(0.00129721 9.11749e-08 3.24184e-07)
(0.00129506 1.40156e-07 3.77468e-07)
(0.00129211 4.44946e-07 3.09392e-07)
(0.00128933 2.82415e-07 3.2146e-07)
(0.00128738 4.32832e-07 5.30761e-07)
(0.0701646 -0.0428243 0.0173299)
(-0.0537179 -0.00863959 -0.001891)
(-0.0542804 -0.0133135 -0.0201253)
(-0.0191523 0.0216891 0.000301181)
(-0.00527393 -0.00699597 0.00365516)
(-0.0143384 -0.000917407 0.00103614)
(-0.000792756 -0.00149823 5.57364e-05)
(0.000812706 -0.00025791 -1.08516e-05)
(0.00137402 -5.00549e-06 8.73733e-07)
(0.00139515 4.12319e-06 4.36842e-07)
(0.00138862 -4.5914e-07 3.59445e-07)
(0.00138555 -8.43286e-07 6.84213e-07)
(0.00138248 -5.59293e-07 3.76299e-07)
(0.0013795 -4.45152e-07 3.45265e-07)
(0.00137637 -3.28307e-07 3.20126e-07)
(0.00137332 -1.51552e-07 3.1489e-07)
(0.00137042 7.97566e-08 3.47405e-07)
(0.00136755 4.64759e-09 3.41128e-07)
(0.00136443 3.84053e-07 3.16863e-07)
(0.0013625 6.00253e-07 1.86081e-07)
(0.00136033 1.07058e-08 3.71832e-07)
(0.00135729 2.80569e-07 3.43182e-07)
(0.00135481 3.18691e-07 9.73792e-07)
(0.00135212 1.28996e-07 3.88965e-07)
(0.0013495 9.60774e-08 2.71345e-07)
(0.00134702 -5.42198e-08 3.73635e-07)
(0.0013445 3.26242e-07 3.89729e-07)
(0.00134199 5.35965e-07 3.08886e-07)
(0.00133886 7.17074e-07 5.11226e-07)
(0.00133608 4.41372e-07 3.01959e-07)
(0.00133424 2.11877e-07 3.61744e-07)
(0.00133144 -3.18768e-07 3.02376e-07)
(0.00132841 1.55788e-07 3.16783e-07)
(0.00132611 7.2649e-08 3.31837e-07)
(0.00132375 1.27148e-07 2.80971e-07)
(0.00132136 -1.27682e-07 3.30389e-07)
(0.00131882 -3.52333e-07 3.50788e-07)
(0.00131583 -3.84519e-07 3.23847e-07)
(0.00131336 -4.15634e-07 3.17387e-07)
(0.00131154 -2.17031e-07 8.36642e-09)
(0.00130934 9.87661e-08 4.73546e-07)
(0.00130707 3.48354e-07 3.98931e-07)
(0.00130447 -3.30082e-09 3.21716e-07)
(0.00130156 5.21933e-08 3.42597e-07)
(0.00129948 -2.91049e-07 6.49514e-07)
(0.00129754 -4.05607e-07 3.25276e-07)
(0.00129534 -8.73054e-07 1.07695e-07)
(0.00129233 -1.35274e-06 2.7333e-07)
(0.00128946 -5.12702e-07 3.65103e-07)
(0.00128695 7.29719e-08 3.27075e-07)
(0.033584 0.0407869 -0.0192441)
(-0.0740595 0.059052 -0.0100615)
(0.0353127 0.0307731 -0.0152609)
(-0.0211236 -0.0138457 0.00198878)
(-0.0208527 0.00611863 -0.00115965)
(0.000359773 -0.00479065 0.0031559)
(0.00388515 0.000395366 -3.23154e-07)
(0.000772321 -3.61735e-05 -3.27639e-05)
(0.00136843 5.45692e-06 6.99713e-07)
(0.00139054 -5.97431e-06 3.91803e-07)
(0.00138752 -8.59272e-07 3.54932e-07)
(0.00138541 -4.64384e-07 3.45392e-07)
(0.00138262 6.29775e-08 4.4165e-07)
(0.00137924 5.44172e-08 3.46363e-07)
(0.00137634 6.78104e-08 5.72814e-07)
(0.00137354 8.66658e-08 4.00717e-07)
(0.00137061 1.72462e-07 3.43044e-07)
(0.00136792 3.4248e-07 2.82471e-07)
(0.0013658 3.7965e-07 3.30486e-07)
(0.00136227 1.04685e-06 5.37167e-07)
(0.00135956 8.42861e-07 2.25704e-07)