/*--------------------------------*- C++ -*----------------------------------*\
| =========                 |                                                 |
| \\      /  F ield         | OpenFOAM: The Open Source CFD Toolbox           |
|  \\    /   O peration     | Version:  5.0                                   |
|   \\  /    A nd           | Web:      www.OpenFOAM.org                      |
|    \\/     M anipulation  |                                                 |
\*---------------------------------------------------------------------------*/
FoamFile
{
    version     2.0;
    format      ascii;
    class       volVectorField;
    location    "4.3";
    object      U_0;
}
// * * * * * * * * * * * * * * * * * * * * * * * * * * * * * * * * * * * * * //

dimensions      [0 1 -1 0 0 0 0];

internalField   nonuniform List<vector> 
8311
(
(-0.00409285 0.00244209 6.72885e-05)
(-0.00289231 0.00449242 -5.9668e-05)
(-0.00101287 7.23986e-05 0.000376442)
(0.000326133 0.00187961 1.22262e-05)
(0.000278843 0.00042094 8.76843e-06)
(0.00286436 0.00191399 1.43813e-05)
(0.000714073 7.27232e-06 1.64251e-05)
(0.000817406 -2.44014e-05 -3.16767e-06)
(0.000830706 -1.30502e-05 6.73185e-08)
(0.000818792 -9.50209e-06 -6.29542e-08)
(0.000822366 -5.43333e-06 1.01622e-07)
(0.000821733 -3.34793e-06 5.68213e-08)
(0.000821845 -1.99553e-06 -6.25392e-09)
(0.000821233 -1.26747e-06 8.98258e-08)
(0.00082039 -7.79735e-07 5.11885e-08)
(0.000819215 -3.9617e-07 3.75307e-08)
(0.000817829 -3.52689e-07 5.16819e-08)
(0.000816562 -1.94368e-07 1.03863e-07)
(0.000814917 -2.01923e-07 -4.43237e-08)
(0.000813241 -1.10044e-07 1.79419e-07)
(0.000811886 -6.66721e-08 6.14876e-08)
(0.000810449 8.49978e-08 6.73759e-08)
(0.000809041 -5.57629e-08 5.77437e-08)
(0.000807515 -9.85975e-08 4.42164e-08)
(0.000805967 -8.08788e-08 4.9314e-08)
(0.000804508 -4.25789e-08 7.22419e-08)
(0.000802962 2.1491e-08 5.2437e-08)
(0.000801553 3.53395e-08 4.98841e-08)
(0.000799773 2.60456e-07 7.81455e-08)
(0.000798004 -1.64084e-07 1.7034e-07)
(0.000796706 -6.54608e-07 -6.14784e-08)
(0.000794936 -4.9631e-07 -1.49212e-08)
(0.000793641 -2.34494e-07 1.12625e-07)
(0.000792715 -9.43327e-08 1.86391e-08)
(0.000791257 9.62857e-08 4.40672e-08)
(0.000789644 2.05632e-07 5.27834e-08)
(0.000787767 2.13364e-07 2.74229e-08)
(0.000786086 1.96606e-07 8.21927e-09)
(0.000784741 4.10329e-07 -3.07076e-08)
(0.000783662 4.87417e-07 8.30684e-08)
(0.000782459 1.00467e-07 3.2135e-08)
(0.000780926 -2.96272e-08 5.65489e-08)
(0.000779518 -4.14733e-07 2.81388e-08)
(0.000777947 -2.66069e-07 2.33668e-07)
(0.000776442 -1.04879e-07 4.12164e-08)
(0.000774995 -1.278e-07 6.46907e-08)
(0.00077362 -1.58298e-07 5.61104e-08)
(0.000772286 -4.37043e-07 1.32054e-07)
(0.000770638 -3.35665e-07 -8.85179e-09)
(0.000768888 -2.27571e-07 6.73648e-08)
(0.00105494 0.000407086 -2.02081e-05)
(0.00261854 0.00086326 0.000133862)
(-0.000605982 -0.0098134 3.4578e-05)
(0.00217879 -0.000274081 -0.000212492)
(-0.00254439 -0.00103568 8.25042e-06)
(-0.00135148 -0.00137566 -1.40297e-05)
(0.00138362 0.000338484 -1.85492e-05)
(0.000448643 -1.71247e-05 -1.16672e-06)
(0.000871284 -9.71276e-06 -9.98846e-07)
(0.000808891 -1.25024e-05 -4.7697e-07)
(0.000825132 -7.58219e-06 1.86379e-07)
(0.00082296 -5.11351e-06 3.93732e-08)
(0.000823079 -3.28262e-06 6.13842e-08)
(0.000822093 -2.09848e-06 5.36502e-08)
(0.000821021 -1.34505e-06 5.21123e-08)
(0.000819552 -9.77151e-07 3.97195e-08)
(0.00081803 -4.62564e-07 5.05168e-08)
(0.000816526 -2.16766e-07 7.30961e-08)
(0.000815123 -5.68114e-08 1.7704e-07)
(0.000813741 2.21778e-08 2.81666e-08)
(0.000812076 1.94305e-07 8.15607e-08)
(0.000810338 1.79334e-07 5.56461e-08)
(0.000808698 2.3843e-07 1.73387e-08)
(0.000807396 1.89768e-07 3.44429e-08)
(0.000805999 2.98504e-09 5.91884e-08)
(0.000804448 -1.09502e-07 4.86526e-08)
(0.000802975 -1.84541e-07 3.80054e-08)
(0.000801566 -2.54384e-07 4.63955e-08)
(0.000799722 -6.3276e-07 8.15089e-10)
(0.000797656 -4.96277e-07 8.18306e-08)
(0.000796477 -4.59633e-07 1.36959e-07)
(0.0007956 -2.46085e-07 4.12878e-08)
(0.000794076 4.24434e-07 1.80175e-07)
(0.000792553 5.15115e-07 2.35707e-07)
(0.000791079 1.88775e-07 5.03663e-08)
(0.000789441 6.25635e-08 3.55988e-08)
(0.000788078 3.50402e-08 4.92859e-08)
(0.000786698 1.79503e-07 5.65617e-08)
(0.000785152 3.55727e-07 1.95573e-08)
(0.000783408 5.03073e-07 -4.05083e-09)
(0.000781785 2.43981e-07 6.16418e-08)
(0.000780354 2.92348e-08 7.12802e-08)
(0.000779112 -2.9957e-07 6.15483e-08)
(0.000778112 -4.2702e-07 8.77818e-08)
(0.000776602 -2.72831e-07 6.07426e-08)
(0.000774996 -1.77733e-07 5.09353e-08)
(0.000773589 -4.77261e-08 7.19275e-08)
(0.000772158 -1.88244e-07 5.26347e-08)
(0.000770604 -3.28965e-07 7.70239e-08)
(0.000769636 -2.42396e-07 2.61101e-08)
(-0.00229225 -0.00307097 0.00028953)
(-0.001791 0.00523702 -0.000186456)
(0.00194626 -0.00672394 -0.000178227)
(0.00703703 0.00712233 0.000231957)
(-0.00213506 -0.00231852 -7.22042e-05)
(3.75396e-05 -0.000483786 -7.3738e-05)
(0.000951412 -0.000254233 5.01738e-05)
(0.000471221 -3.9881e-05 9.86763e-08)
(0.000882809 -3.39075e-05 -2.1484e-06)
(0.000821551 -1.7376e-05 -4.19755e-07)
(0.000831664 -1.07166e-05 1.51908e-07)
(0.000827148 -6.24953e-06 3.20904e-08)
(0.000825641 -3.89973e-06 5.48083e-08)
(0.000823672 -2.40824e-06 5.02166e-08)
(0.000821804 -1.52164e-06 5.39894e-08)
(0.000820325 -1.05895e-06 5.80664e-08)
(0.000818785 -7.0154e-07 -3.17831e-08)
(0.000817072 -4.61333e-07 4.20219e-08)
(0.000815217 -3.00488e-07 1.12708e-07)
(0.000813555 -2.21716e-07 4.55218e-08)
(0.000812082 -2.95171e-07 3.71937e-08)
(0.000810501 -1.02133e-07 4.78129e-08)
(0.000809051 1.41435e-07 1.47619e-07)
(0.000807218 2.18862e-07 -7.99509e-08)
(0.000805592 1.57719e-07 5.04081e-08)
(0.000804274 1.07683e-07 3.48277e-08)
(0.000802783 4.00229e-09 1.81295e-08)
(0.000800997 -7.07617e-08 6.01582e-08)
(0.000799475 -2.52201e-07 -9.55785e-09)
(0.000798226 2.61874e-07 8.49727e-08)
(0.000797022 7.02323e-07 9.61674e-08)
(0.000796041 6.16358e-07 6.15335e-08)
(0.000794591 2.61496e-07 2.65032e-07)
(0.000792416 2.79375e-07 1.21972e-07)
(0.000790688 8.78352e-08 8.92796e-08)
(0.000789451 1.28484e-07 5.41292e-08)
(0.000787912 1.42011e-07 5.5186e-08)
(0.000786483 7.31014e-08 4.88117e-08)
(0.000785141 1.32872e-07 4.67074e-08)
(0.000783518 -6.61746e-08 9.44595e-08)
(0.000781864 -5.64475e-08 8.68705e-08)
(0.000780247 6.60934e-08 5.04488e-08)
(0.000778951 4.04572e-07 1.81803e-07)
(0.000777984 2.09249e-07 1.57955e-07)
(0.000776757 1.04342e-07 4.02682e-08)
(0.000775278 1.26596e-07 5.31017e-08)
(0.000773608 2.27808e-07 8.18553e-08)
(0.000771936 1.15869e-07 7.90783e-08)
(0.000770577 8.86655e-08 5.94268e-08)
(0.0007696 8.6305e-08 7.03108e-08)
(-0.016232 -0.0259091 0.00250798)
(0.00477656 0.00247554 0.000791104)
(-0.0067545 -0.00337642 3.29297e-05)
(0.00774779 0.00911434 0.000221485)
(-0.0124874 0.0126806 0.00116028)
(0.0202462 -0.000818662 9.29929e-05)
(0.00257042 0.000313806 8.1741e-06)
(0.000493281 -8.42822e-05 3.64073e-05)
(0.000902389 -2.67535e-05 -1.87409e-06)
(0.000838301 -8.54381e-06 -3.7889e-07)
(0.000839131 -6.78936e-06 1.09849e-07)
(0.000831538 -4.04324e-06 -1.64947e-07)
(0.000827915 -2.64085e-06 4.96455e-08)
(0.000825087 -1.58603e-06 5.05396e-08)
(0.000822722 -8.70339e-07 4.91157e-08)
(0.000820586 -4.26017e-07 5.13579e-08)
(0.000818784 -5.05758e-07 6.8086e-08)
(0.000817033 -4.17294e-07 5.864e-08)
(0.000815426 -4.63535e-07 3.77887e-08)
(0.000813751 -3.71222e-07 2.95547e-08)
(0.000812227 -3.31495e-07 7.85695e-08)
(0.000810884 -2.52594e-07 5.22585e-08)
(0.000809098 -2.64089e-07 2.51518e-08)
(0.000807414 -1.7336e-07 6.04212e-08)
(0.000805857 7.87663e-08 2.75606e-08)
(0.000804255 2.19106e-07 3.15199e-08)
(0.000802751 2.76454e-07 6.61362e-08)
(0.000801247 3.4271e-07 8.67525e-08)
(0.000800137 7.89613e-07 7.24101e-08)
(0.000798846 5.8643e-07 7.35211e-08)
(0.000796915 7.71217e-07 3.63978e-08)
(0.000795045 6.8671e-07 -5.35968e-08)
(0.000793651 1.74616e-07 4.8465e-08)
(0.000792335 -9.8898e-08 5.08657e-08)
(0.000790889 9.92233e-08 5.90317e-08)
(0.000789508 1.36845e-08 4.82295e-08)
(0.000788009 -6.61214e-08 4.16296e-08)
(0.000786686 -1.05766e-07 3.37991e-08)
(0.000784978 -4.00159e-07 -1.00529e-08)
(0.000783172 -2.89607e-07 -2.80804e-08)
(0.00078195 -7.56761e-08 -7.15204e-08)
(0.000780929 1.17388e-07 5.54467e-08)
(0.000779288 3.16333e-07 9.73591e-08)
(0.000777733 4.75202e-07 -9.97505e-08)
(0.000776495 8.11727e-08 3.76559e-08)
(0.000775148 3.79738e-09 3.99443e-08)
(0.000773573 -3.42614e-08 8.29778e-08)
(0.000771982 8.66307e-08 2.99512e-08)
(0.000770564 2.53875e-07 4.50786e-08)
(0.000769417 2.19642e-07 5.21384e-08)
(0.00939091 -0.00334514 0.00153591)
(-0.0144091 0.0138965 -0.00536098)
(-0.00536504 -6.53748e-05 0.000855494)
(-0.027935 0.00159628 0.000571781)
(0.00453997 -0.0042329 0.000398477)
(0.0099413 -0.00200199 0.000468765)
(-4.91365e-05 -0.000464325 -6.92199e-06)
(0.000880372 -7.6213e-05 9.42857e-06)
(0.000839879 -2.7012e-06 -2.9124e-06)
(0.000846331 2.94978e-06 1.56844e-07)
(0.000837343 -2.96194e-08 3.86655e-08)
(0.000832372 -3.35362e-07 9.14977e-08)
(0.000828736 -2.35822e-07 9.43331e-08)
(0.0008259 -2.59172e-07 5.17279e-08)
(0.000823262 -3.36916e-07 3.19945e-08)
(0.000820786 -2.81668e-07 2.31853e-08)
(0.000818799 -8.9518e-08 5.13749e-08)
(0.000817128 -1.3193e-07 5.21117e-08)
(0.000815278 -2.49686e-08 6.76625e-08)
(0.000813723 9.12888e-08 6.46085e-08)
(0.000812233 1.68885e-09 6.82313e-08)
(0.000810589 5.34736e-08 9.58063e-08)
(0.000809153 -7.60131e-08 4.83129e-08)
(0.000807648 2.4997e-08 9.4598e-08)
(0.000806082 1.38371e-08 6.69337e-08)
(0.00080452 5.07393e-08 6.56478e-08)
(0.000802934 1.73817e-07 7.03791e-08)
(0.000801632 2.53021e-07 5.30022e-09)
(0.000799773 3.59288e-07 -1.1349e-08)
(0.000798195 3.83319e-07 3.75647e-08)
(0.00079714 8.19829e-08 5.18024e-08)
(0.00079529 -1.60256e-07 3.94482e-08)
(0.000793606 1.30766e-07 6.95105e-08)
(0.000792321 2.10655e-08 5.25554e-08)
(0.000790829 4.04558e-08 6.81672e-08)
(0.000789244 -7.7463e-08 4.71984e-08)
(0.000787763 -1.28777e-07 5.36666e-08)
(0.000786068 -1.70706e-07 6.68354e-08)
(0.000784914 -3.1535e-07 1.20418e-07)
(0.000783926 -1.37967e-07 5.26405e-08)
(0.000782374 5.61054e-08 6.49469e-08)
(0.000780736 5.8852e-08 3.13543e-07)
(0.000779395 -9.13523e-08 4.36211e-08)
(0.000777687 7.45592e-08 4.17372e-08)
(0.000776166 -4.28947e-08 3.92965e-08)
(0.000775134 -1.79436e-07 5.00258e-08)
(0.000773711 -4.18606e-07 -4.00355e-08)
(0.000772296 -3.36213e-07 -2.72426e-07)
(0.000770737 -2.04165e-07 5.68391e-09)
(0.00076901 1.07896e-07 8.89062e-08)
(0.0213658 0.00267467 -0.000844201)
(-0.000480788 0.0095106 -0.00178086)
(0.00285071 -0.00786126 -4.07472e-05)
(0.00326845 -0.00625903 -0.00201902)
(-0.00504147 -0.00434235 -8.99547e-05)
(-0.011193 0.000476216 -0.000164054)
(0.00155609 -0.000593517 7.99802e-06)
(0.0011595 6.61123e-07 2.72702e-06)
(0.000832673 1.57586e-05 -2.87431e-06)
(0.000841419 4.02804e-06 2.18996e-07)
(0.000835023 4.25115e-06 6.48001e-08)
(0.000831286 2.72945e-06 9.78685e-08)
(0.000828015 1.922e-06 9.28866e-08)
(0.000824964 1.13277e-06 5.13147e-08)
(0.000822697 5.85133e-07 8.66824e-08)
(0.000820898 2.8241e-07 8.43574e-08)
(0.000818973 2.32323e-07 5.12124e-08)
(0.000817114 1.85441e-07 3.18274e-08)
(0.000815705 1.69535e-08 2.10056e-08)
(0.000813783 2.53703e-07 1.8665e-07)
(0.000812179 3.29598e-07 1.36295e-08)
(0.000810787 2.5433e-07 5.89033e-08)
(0.000809063 2.73068e-07 8.84867e-08)
(0.000807527 1.67337e-07 -2.64477e-08)
(0.00080589 1.6218e-07 5.84578e-08)
(0.000804454 9.6994e-08 4.07733e-08)
(0.000803003 -4.25849e-09 3.76722e-08)
(0.000801476 -8.75981e-08 1.96749e-08)
(0.000800296 -1.34825e-07 5.32195e-08)
(0.000798497 -1.79939e-07 8.33199e-08)
(0.000796235 -4.19279e-07 -3.58235e-08)
(0.000795104 -2.84591e-07 1.62648e-07)
(0.000793877 -2.38775e-07 1.40324e-08)
(0.00079222 -1.54702e-07 5.43801e-08)
(0.000790766 -2.59461e-07 -1.58569e-08)
(0.000789296 -1.92351e-07 4.72297e-08)
(0.000787893 -5.06648e-08 4.10004e-08)
(0.000786455 1.16671e-07 6.88932e-08)
(0.000785021 3.23903e-07 8.53211e-08)
(0.000783638 1.07887e-07 6.99437e-08)
(0.000782197 2.15635e-08 5.72935e-08)
(0.000780745 -6.84711e-08 1.81819e-07)
(0.000779309 -2.64876e-08 3.12913e-08)
(0.000777795 -1.71365e-07 6.39408e-08)
(0.000776179 -1.76343e-08 4.40295e-08)
(0.000774681 -1.57117e-07 4.76478e-08)
(0.000773381 -4.72697e-07 -3.25952e-07)
(0.000772253 -5.36099e-07 5.9601e-08)
(0.00077112 -4.71832e-07 9.74717e-08)
(0.000769537 -1.63447e-07 1.87477e-07)
(0.00562383 0.0130398 0.00631041)
(-0.0134894 0.0162833 0.00149726)
(0.00468319 0.00531823 -0.000757877)
(-0.000256016 0.0150379 -0.000522414)
(0.00531577 -0.00481029 -0.000202305)
(-0.0043095 -0.00254923 -0.000258339)
(0.000840665 -0.000951239 -2.15894e-05)
(0.000477408 0.000106593 5.90945e-05)
(0.000892791 2.95966e-05 -2.02971e-06)
(0.000832092 1.14519e-05 -4.14259e-07)
(0.000835705 8.84517e-06 1.08002e-07)
(0.000829442 5.48369e-06 -2.01688e-08)
(0.000826727 3.46611e-06 4.38507e-08)
(0.000824221 2.22619e-06 4.90742e-08)
(0.000822195 1.48723e-06 5.14804e-08)
(0.000820343 1.03935e-06 5.39034e-08)
(0.000818676 6.43623e-07 5.15125e-08)
(0.000816857 4.37322e-07 5.98559e-08)
(0.000815361 3.12311e-07 6.44789e-08)
(0.000814112 1.49461e-08 6.67186e-08)
(0.000812231 2.73345e-07 -7.76383e-08)
(0.000810515 1.04181e-07 4.73311e-08)
(0.000809042 1.74993e-07 -2.24928e-08)
(0.000807508 5.58844e-08 5.24652e-08)
(0.000805993 1.49576e-07 6.07555e-09)
(0.000804311 1.71626e-07 1.97616e-07)
(0.000802703 -3.8975e-08 5.29661e-08)
(0.00080147 -9.78108e-08 6.89754e-08)
(0.000799659 -4.44688e-07 2.22206e-08)
(0.000797842 -7.80193e-07 1.42142e-08)
(0.000797012 -4.03592e-07 1.69677e-07)
(0.000795519 -1.00119e-07 4.5126e-08)
(0.00079377 -1.39916e-07 4.07758e-08)
(0.000792298 -9.76138e-08 5.45022e-08)
(0.000790783 -2.13642e-08 1.87073e-07)
(0.000789506 1.19673e-07 1.7047e-07)
(0.00078815 8.70015e-08 5.22335e-08)
(0.000786535 3.86527e-08 5.4311e-08)
(0.000784902 1.59151e-07 5.84344e-08)
(0.000783547 2.71251e-07 2.27048e-08)
(0.000782153 1.12713e-07 1.08456e-07)
(0.000780676 9.22344e-08 -1.46823e-09)
(0.000779267 -1.80462e-08 5.07832e-08)
(0.000777699 -5.55466e-08 5.75792e-08)
(0.000776186 -2.75003e-08 1.37984e-08)
(0.000774567 4.78487e-08 4.94917e-08)
(0.000773241 2.54538e-08 -1.51979e-08)
(0.000772301 -2.58337e-07 7.88187e-08)
(0.000771212 -2.17012e-07 2.3679e-08)
(0.000769802 -3.30638e-07 7.9633e-08)
(0.00809376 -0.00326927 -0.000235337)
(-0.00364067 0.0123067 -0.000631728)
(-0.00868116 0.00834658 0.000554901)
(0.00469665 -0.00644847 -5.44947e-05)
(0.00169552 0.00179049 -0.000273897)
(0.000555446 0.000310305 -0.000324978)
(0.00127159 -2.37985e-05 1.426e-05)
(0.000368219 3.88634e-05 1.10252e-05)
(0.000871875 3.10574e-05 -1.52451e-06)
(0.000815578 1.6938e-05 -3.84135e-07)
(0.000827494 1.05836e-05 1.64026e-07)
(0.000824515 6.40441e-06 3.81673e-08)
(0.000823913 3.97616e-06 5.71537e-08)
(0.000822472 2.4892e-06 5.28922e-08)
(0.000821201 1.61164e-06 1.78172e-07)
(0.000819835 1.06723e-06 5.26865e-08)
(0.000818214 6.3941e-07 1.31084e-07)
(0.000816695 4.83324e-07 7.14442e-08)
(0.000815175 5.21222e-07 9.01752e-08)
(0.000813732 2.52375e-07 4.25434e-08)
(0.00081229 -4.44596e-08 4.80989e-08)
(0.000810662 3.64963e-08 6.20152e-08)
(0.000809002 -1.50881e-07 3.82029e-08)
(0.000807494 -7.51565e-08 5.02026e-08)
(0.000806033 -2.62496e-07 6.5842e-08)
(0.000804218 -2.39333e-07 1.51547e-08)
(0.000802666 -6.40642e-08 8.88099e-09)
(0.000800971 -4.17972e-08 8.43822e-08)
(0.000799448 -2.28322e-07 5.69164e-08)
(0.000798554 2.86543e-07 5.81505e-08)
(0.000797089 3.80301e-07 1.05944e-07)
(0.000795436 1.03618e-07 4.90739e-08)
(0.000793882 1.78069e-07 5.1276e-08)
(0.00079237 6.77822e-08 5.26959e-08)
(0.000791038 1.19088e-07 4.64257e-08)
(0.000789432 6.38156e-08 1.8574e-08)
(0.000787792 -7.464e-08 2.0151e-08)
(0.000786545 -9.71428e-08 4.23244e-08)
(0.00078531 1.19686e-07 4.13776e-08)
(0.000783578 2.03784e-07 5.12585e-08)
(0.000781971 4.10678e-08 1.65256e-07)
(0.000780581 1.21603e-07 4.63436e-08)
(0.000779124 2.99806e-08 5.04106e-08)
(0.000777783 7.32992e-09 4.41672e-08)
(0.000776309 7.18204e-08 4.53709e-08)
(0.000774748 1.60502e-07 4.66356e-08)
(0.000772999 5.2013e-07 6.05861e-08)
(0.000771952 6.71121e-07 6.98457e-08)
(0.000771038 2.32642e-07 3.21941e-08)
(0.00077022 -4.64497e-08 9.23482e-08)
(0.0130947 0.00323533 -0.000650116)
(0.000755967 -0.002892 0.000850044)
(-0.00621614 -0.0094612 -0.000135004)
(-0.0240273 0.0101318 0.000303325)
(0.00428531 -0.00220537 -0.000402639)
(-0.00234682 -0.00339541 -0.000302798)
(0.000159933 -0.00036757 6.40774e-05)
(0.000449332 1.01519e-05 3.92147e-07)
(0.000866359 2.01614e-05 -1.46354e-06)
(0.000806249 1.24739e-05 -5.29289e-07)
(0.000822439 7.33437e-06 1.47699e-07)
(0.000821121 4.44914e-06 1.95862e-08)
(0.000821796 2.66498e-06 5.32329e-08)
(0.000821242 1.70869e-06 4.90689e-08)
(0.000820403 1.15106e-06 1.08204e-08)
(0.000819118 6.9743e-07 1.10563e-07)
(0.000817941 5.00125e-07 4.85725e-08)
(0.000816706 3.50309e-07 8.49258e-08)
(0.000815069 2.15068e-07 2.5578e-08)
(0.000813403 2.25525e-07 8.16918e-08)
(0.000811961 8.68097e-08 5.22472e-08)
(0.000810383 -1.40519e-07 2.30355e-08)
(0.000808903 -1.84652e-07 6.71594e-08)
(0.000807371 -2.01146e-07 5.39132e-08)
(0.00080579 -2.40254e-07 3.82276e-08)
(0.000804561 -2.8747e-07 -4.67213e-08)
(0.000802952 -1.60335e-07 2.32719e-08)
(0.000801266 -1.19787e-07 3.64643e-07)
(0.00080007 7.71444e-08 1.0101e-07)
(0.000798602 2.99084e-07 6.4035e-08)
(0.000796782 2.73894e-07 2.70624e-07)
(0.000795264 1.40327e-07 6.02486e-08)
(0.000793724 -1.78522e-08 4.7013e-08)
(0.000792223 -1.08494e-07 -1.91269e-08)
(0.000790778 -2.03213e-07 2.96408e-08)
(0.000789264 -3.76327e-07 5.42318e-08)
(0.00078795 -3.13599e-07 -3.8327e-08)
(0.000786779 -1.37654e-07 5.0282e-08)
(0.000785278 -3.87002e-07 8.85006e-08)
(0.000783448 -5.54527e-07 3.68812e-08)
(0.000782049 -2.12838e-07 5.00742e-08)
(0.000780662 -1.87553e-07 7.04712e-08)
(0.000779124 1.1956e-07 4.42471e-08)
(0.000777751 3.78077e-08 3.14831e-08)
(0.000776377 7.09319e-08 5.80231e-08)
(0.000775126 1.32791e-07 -2.42226e-09)
(0.000773876 3.23642e-07 3.61784e-08)
(0.000771938 9.15724e-07 2.66337e-08)
(0.000770313 6.68176e-07 -4.44951e-08)
(0.000769567 3.64007e-07 9.10784e-08)
(0.00595565 0.00156414 -0.000223968)
(0.00256281 -0.00302624 0.000106867)
(0.000678671 0.00865122 0.000587737)
(-0.00087076 0.00138953 0.000273985)
(0.00119483 -0.00402789 -0.000278295)
(0.00465677 0.00550445 0.00026712)
(0.0011192 -0.000269024 -1.69531e-05)
(0.000446711 4.02299e-06 9.34052e-07)
(0.000835795 -1.03262e-05 -1.36303e-06)
(0.000799207 8.12048e-08 -3.03348e-07)
(0.000817389 -4.63173e-07 2.20372e-07)
(0.000818634 2.29019e-08 7.54574e-08)
(0.000820461 2.53156e-08 3.79338e-07)
(0.000820563 6.25302e-08 6.04018e-08)
(0.000819926 1.86168e-08 5.66201e-08)
(0.000819014 5.35331e-08 7.05298e-08)
(0.000817776 9.65889e-08 4.62236e-08)
(0.000816336 -3.47054e-08 3.54077e-07)
(0.000815016 -1.78299e-08 7.60967e-08)
(0.000813571 -1.57033e-07 6.16947e-08)
(0.000811832 -1.47949e-07 1.45622e-07)
(0.000810324 -2.17567e-07 7.50952e-08)
(0.000808928 -9.65281e-08 5.89197e-08)
(0.000807427 -1.08589e-07 4.92071e-08)
(0.000805928 1.85646e-08 6.92236e-08)
(0.000804321 3.27355e-08 5.74251e-08)
(0.000802878 -2.35896e-08 1.21851e-07)
(0.000801269 4.10692e-08 4.99493e-08)
(0.000799971 2.06293e-07 -8.9963e-08)
(0.000798798 -1.96757e-07 7.39719e-08)
(0.000796888 -2.72606e-07 9.02359e-08)
(0.000795071 -2.59651e-07 2.42853e-08)
(0.000793571 -5.38344e-07 1.59009e-08)
(0.00079214 -3.29297e-07 1.13254e-07)
(0.000790705 -1.47625e-07 4.08635e-08)
(0.000789296 5.22876e-08 9.20441e-08)
(0.000788092 1.56386e-07 7.83099e-08)
(0.000786455 -9.32654e-08 5.01685e-08)
(0.000784792 -3.99158e-07 6.36462e-09)
(0.000783799 -5.25137e-07 6.52953e-08)
(0.000782433 -2.30937e-07 6.51523e-08)
(0.000780997 -1.99755e-07 1.83495e-08)
(0.000779406 -2.0256e-08 6.10776e-08)
(0.000777722 1.15853e-07 7.29691e-08)
(0.000776427 1.37473e-07 -1.46823e-08)
(0.000775062 1.70551e-07 3.90906e-08)
(0.000773973 3.45551e-08 1.66222e-08)
(0.000772376 -3.34086e-08 3.75496e-08)
(0.000770334 3.14279e-07 -2.69694e-08)
(0.000768934 2.3265e-07 7.04515e-08)
(-0.00354785 0.00238702 0.000826523)
(-0.00519474 0.00294718 -0.000516998)
(-0.00134585 0.000908947 0.000669938)
(0.00361974 0.0075947 0.00141979)
(0.00468831 -0.00924721 -0.000109443)
(0.00936995 -0.00299726 0.000206257)
(0.00085909 2.45424e-05 7.01464e-06)
(0.001365 -3.87445e-05 2.14859e-07)
(0.00138593 -2.02415e-05 3.48454e-07)
(0.00136512 -1.47812e-05 4.2393e-07)
(0.00137061 -8.36862e-06 3.91813e-07)
(0.00136932 -5.16336e-06 3.87626e-07)
(0.00136945 -3.09768e-06 2.79855e-07)
(0.00136835 -1.92708e-06 3.59048e-07)
(0.00136683 -1.18267e-06 3.42554e-07)
(0.00136484 -5.95373e-07 2.86694e-07)
(0.00136252 -5.47042e-07 3.43024e-07)
(0.00136035 -3.1198e-07 3.87109e-07)
(0.0013576 -2.81271e-07 1.4443e-07)
(0.00135486 -2.21151e-07 4.73871e-07)
(0.00135261 -1.14187e-07 4.35309e-07)
(0.00135014 1.71646e-07 3.78551e-07)
(0.00134772 -8.34747e-08 3.219e-07)
(0.00134521 -1.36437e-07 2.91527e-07)
(0.00134265 -6.57202e-08 2.78976e-07)
(0.00134019 6.2623e-09 3.55765e-07)
(0.00133763 8.28859e-08 2.91701e-07)
(0.00133533 6.45341e-08 3.41359e-07)
(0.00133234 4.36957e-07 3.945e-07)
(0.00132934 -3.30869e-07 4.80779e-07)
(0.00132713 -1.1225e-06 2.37178e-07)
(0.00132419 -8.64549e-07 1.02643e-07)
(0.00132203 -4.2513e-07 4.17811e-07)
(0.00132051 -1.40863e-07 3.08514e-07)
(0.00131811 2.15309e-07 3.21288e-07)
(0.00131534 3.9596e-07 3.18762e-07)
(0.00131218 3.5452e-07 3.16987e-07)
(0.00130936 3.69718e-07 2.57627e-07)
(0.00130722 7.66185e-07 1.30479e-07)
(0.00130545 7.93229e-07 3.55579e-07)
(0.0013033 1.74031e-07 2.88818e-07)
(0.00130071 -4.25193e-08 1.87708e-07)
(0.00129852 -6.98656e-07 2.72527e-07)
(0.00129585 -4.36528e-07 7.12152e-07)
(0.00129326 -2.13159e-07 3.36152e-07)
(0.00129089 -2.71391e-07 3.43346e-07)
(0.00128855 -2.95814e-07 3.02702e-07)
(0.00128637 -6.91014e-07 4.19395e-07)
(0.00128358 -5.63872e-07 2.34314e-07)
(0.00128065 -4.04814e-07 3.50869e-07)
(0.00114578 -0.00486785 0.000359051)
(0.0051205 0.00271982 1.51883e-05)
(0.00243152 -0.00600475 0.000189431)
(0.00800904 0.00272638 -0.00012615)
(0.00248165 0.00150098 -0.00076141)
(0.00182063 -0.00331271 6.75183e-05)
(0.000748756 -0.000337966 -0.000146615)
(0.00134777 -4.40803e-05 1.83198e-07)
(0.00145275 -1.37158e-05 4.13121e-07)
(0.00134803 -1.92362e-05 3.37346e-07)
(0.00137472 -1.16861e-05 3.43558e-07)
(0.00137109 -7.91834e-06 3.4304e-07)
(0.00137126 -5.09161e-06 3.42939e-07)
(0.00136961 -3.29685e-06 3.42553e-07)
(0.00136782 -2.12513e-06 3.41973e-07)
(0.00136537 -1.55697e-06 3.13218e-07)
(0.00136285 -7.55099e-07 3.39552e-07)
(0.0013604 -4.12617e-07 3.81217e-07)
(0.00135792 -1.36654e-07 5.07266e-07)
(0.00135552 1.0982e-08 3.12759e-07)
(0.00135283 2.93354e-07 3.82593e-07)
(0.00134992 2.64928e-07 3.7201e-07)
(0.00134722 4.56759e-07 2.81431e-07)
(0.00134513 3.70196e-07 3.03272e-07)
(0.00134275 6.73661e-08 3.49261e-07)
(0.00134008 -1.34117e-07 3.28412e-07)
(0.0013376 -2.58391e-07 3.09725e-07)
(0.00133528 -4.32796e-07 3.32681e-07)
(0.00133218 -1.16295e-06 2.36213e-07)
(0.00132874 -8.68592e-07 3.23256e-07)
(0.00132682 -7.63755e-07 3.67144e-07)
(0.0013253 -4.17815e-07 3.00687e-07)
(0.00132279 7.56657e-07 6.22478e-07)
(0.00132031 8.9857e-07 7.53465e-07)
(0.00131782 3.24601e-07 3.36262e-07)
(0.00131504 1.02831e-07 3.18731e-07)
(0.00131274 1.05223e-07 3.19845e-07)
(0.00131048 3.66813e-07 3.72356e-07)
(0.00130781 7.14474e-07 3.15868e-07)
(0.00130487 8.67623e-07 3.42145e-07)
(0.0013022 3.93654e-07 3.39612e-07)
(0.00129979 4.49703e-08 3.7108e-07)
(0.00129771 -4.37179e-07 4.53919e-07)
(0.00129605 -7.35968e-07 3.26344e-07)
(0.00129355 -4.35689e-07 3.56939e-07)
(0.00129088 -3.28869e-07 2.4831e-07)
(0.00128858 -1.91662e-08 3.47112e-07)
(0.00128618 -2.76408e-07 2.86133e-07)
(0.00128357 -5.24251e-07 3.56887e-07)
(0.00128191 -4.09794e-07 2.15711e-07)
(-0.000520271 -0.00719477 0.000514202)
(-0.00271015 0.00529699 -0.000421735)
(0.00354963 -0.00322787 -0.000382371)
(0.00684099 0.00453357 0.001105)
(0.00455505 0.0032258 0.000107625)
(-0.00493761 0.00182562 -0.00175746)
(0.000632885 0.000615152 2.65495e-05)
(0.00140286 -0.000106734 4.09802e-06)
(0.00146939 -5.38749e-05 -3.84522e-07)
(0.00136782 -2.75177e-05 3.39877e-07)
(0.00138486 -1.7018e-05 3.46419e-07)
(0.00137762 -9.92887e-06 3.43591e-07)
(0.00137527 -6.20829e-06 3.43514e-07)
(0.00137208 -3.84825e-06 3.43476e-07)
(0.00136902 -2.44845e-06 3.42582e-07)
(0.00136656 -1.72724e-06 3.39978e-07)
(0.00136396 -1.1644e-06 1.05479e-07)
(0.00136113 -8.03701e-07 2.47225e-07)
(0.00135813 -6.39281e-07 3.91794e-07)
(0.0013554 -4.20818e-07 3.29685e-07)
(0.00135293 -4.82974e-07 2.92266e-07)
(0.00135034 -1.51379e-07 3.36952e-07)
(0.00134784 2.94968e-07 5.11479e-07)
(0.00134472 4.15133e-07 -1.90765e-07)
(0.00134202 2.42524e-07 3.45401e-07)
(0.00133978 1.90242e-07 3.09554e-07)
(0.00133726 3.91271e-08 4.24072e-08)
(0.00133421 -7.20388e-08 3.25932e-07)
(0.00133181 -3.87816e-07 2.1815e-07)
(0.00132984 5.03541e-07 3.71057e-07)
(0.0013277 1.1842e-06 3.59779e-07)
(0.00132609 1.04162e-06 3.1844e-07)
(0.00132367 4.71269e-07 7.74284e-07)
(0.00131996 4.77239e-07 4.34895e-07)
(0.00131711 1.32294e-07 3.74771e-07)
(0.00131506 1.72847e-07 3.39988e-07)
(0.00131251 2.2508e-07 2.86938e-07)
(0.00131012 1.09056e-07 3.44536e-07)
(0.00130784 1.54836e-07 3.35715e-07)
(0.00130504 -1.26159e-07 4.21607e-07)
(0.00130227 -9.89195e-08 4.06818e-07)
(0.00129967 1.43832e-07 2.87907e-07)
(0.00129755 7.2779e-07 5.03991e-07)
(0.00129586 4.51706e-07 4.62345e-07)
(0.00129378 3.23389e-07 3.62305e-08)
(0.00129141 3.27111e-07 3.14415e-07)
(0.00128861 4.67403e-07 3.71221e-07)
(0.00128574 2.78287e-07 3.47495e-07)
(0.00128343 1.71362e-07 3.36569e-07)
(0.00128181 1.50176e-07 3.04769e-07)
(-0.00620744 -0.0201574 -0.00471603)
(0.00808538 -0.00114606 0.00220803)
(0.0012462 -0.00677026 0.000154061)
(-0.00356244 0.00670927 0.000518852)
(-0.000894437 -0.0141549 6.62521e-05)
(0.0438674 -0.00195973 0.000334235)
(0.00270101 -0.000746326 -2.16009e-05)
(0.00108851 -7.51091e-05 5.87923e-05)
(0.00150064 -4.3709e-05 3.08978e-07)
(0.00139485 -1.38502e-05 5.25685e-07)
(0.00139685 -1.10829e-05 3.4917e-07)
(0.00138469 -6.60164e-06 1.2677e-07)
(0.00137892 -4.34012e-06 3.42993e-07)
(0.00137435 -2.60415e-06 3.43942e-07)
(0.00137049 -1.43684e-06 3.42762e-07)
(0.00136699 -7.0941e-07 3.41923e-07)
(0.00136402 -8.1795e-07 3.69629e-07)
(0.00136107 -6.38348e-07 3.07834e-07)
(0.00135841 -7.35588e-07 3.21729e-07)
(0.00135572 -6.32276e-07 3.03647e-07)
(0.00135317 -5.47928e-07 3.48421e-07)
(0.00135089 -4.28546e-07 3.38756e-07)
(0.00134793 -4.99976e-07 2.81429e-07)
(0.00134506 -3.06567e-07 3.88949e-07)
(0.00134246 9.0369e-08 2.79022e-07)
(0.00133982 3.42293e-07 2.74912e-07)
(0.00133727 4.73907e-07 4.02921e-07)
(0.00133475 6.57029e-07 3.91552e-07)
(0.00133289 1.46065e-06 3.32965e-07)
(0.0013307 1.07172e-06 5.22541e-07)
(0.00132749 1.31994e-06 4.88934e-07)
(0.0013244 1.22706e-06 -2.14933e-08)
(0.00132208 3.1777e-07 3.26074e-07)
(0.00131988 -1.38777e-07 3.29674e-07)
(0.00131744 1.71283e-07 3.00144e-07)
(0.00131516 2.51513e-08 3.15586e-07)
(0.00131266 -1.06749e-07 3.09567e-07)
(0.0013104 -1.97796e-07 2.73364e-07)
(0.00130752 -6.93135e-07 1.89577e-07)
(0.00130455 -5.53823e-07 1.30197e-07)
(0.00130254 -1.41788e-07 1.61069e-07)
(0.00130082 2.23762e-07 2.96603e-07)
(0.00129809 5.26033e-07 4.61898e-07)
(0.00129554 7.44494e-07 1.106e-07)
(0.00129339 1.36859e-07 2.86823e-07)
(0.00129106 2.10639e-08 3.21873e-07)
(0.00128851 -8.50188e-08 3.87883e-07)
(0.00128581 1.25345e-07 1.75394e-07)
(0.0012834 3.91018e-07 3.16342e-07)
(0.00128151 3.81036e-07 2.43806e-07)
(0.0775656 -0.0717675 0.0226339)
(-0.0377606 -0.0116867 -0.00807524)
(-0.0499469 -0.0118662 -0.0194756)
(-0.0421462 0.0439095 0.000798207)
(-0.00606634 -0.00749555 0.00373429)
(-0.0151822 -0.000446756 0.000233478)
(-0.000790941 -0.00152227 5.57638e-05)
(0.000853441 -0.000259901 -1.01155e-05)
(0.00139633 -6.15607e-06 8.76523e-07)
(0.00140822 3.85203e-06 4.53488e-07)
(0.001394 -6.07149e-07 2.75455e-07)
(0.00138611 -8.77628e-07 3.87662e-07)
(0.00138031 -5.46487e-07 3.16697e-07)
(0.00137574 -5.25189e-07 3.43968e-07)
(0.0013714 -5.97549e-07 3.71225e-07)
(0.00136734 -4.75042e-07 3.52192e-07)
(0.00136406 -1.52104e-07 3.39356e-07)
(0.00136124 -2.2162e-07 3.3518e-07)
(0.00135815 9.35431e-09 3.4603e-07)
(0.00135564 2.21759e-07 3.18404e-07)
(0.00135319 7.76493e-09 3.73875e-07)
(0.00135041 9.70235e-08 8.18104e-07)
(0.001348 -1.10325e-07 3.90872e-07)
(0.00134546 1.52722e-08 3.80665e-07)
(0.00134283 3.83318e-08 2.53334e-07)
(0.00134026 3.0371e-08 3.71937e-07)
(0.00133764 2.76076e-07 3.8783e-07)
(0.00133543 4.36892e-07 2.83517e-07)
(0.00133231 6.51689e-07 2.67035e-07)
(0.00132966 6.65969e-07 3.17836e-07)
(0.00132788 1.79705e-07 3.54644e-07)
(0.00132483 -2.28058e-07 3.24151e-07)
(0.00132196 2.76678e-07 3.38845e-07)
(0.00131978 8.1788e-08 3.32753e-07)
(0.00131732 1.00788e-07 3.34028e-07)
(0.00131471 -1.14723e-07 3.24818e-07)
(0.00131223 -2.41535e-07 3.51146e-07)
(0.00130939 -3.1123e-07 3.2848e-07)
(0.0013074 -5.33546e-07 4.77011e-07)
(0.00130574 -2.61788e-07 2.39285e-07)
(0.00130325 7.52304e-08 3.38793e-07)
(0.0013005 8.6135e-08 6.70812e-07)
(0.0012982 -1.76788e-07 3.04416e-07)
(0.00129537 5.06541e-08 1.79669e-07)
(0.00129287 -2.06484e-07 3.01286e-07)
(0.00129114 -3.67556e-07 3.21839e-07)
(0.00128874 -7.96229e-07 1.22284e-07)
(0.00128633 -6.9116e-07 -5.51178e-08)
(0.00128374 -3.6171e-07 3.18416e-07)
(0.00128085 1.81613e-07 4.13913e-07)
(0.0121496 0.0271932 -0.010671)
(-0.0165927 0.0119343 -0.0179214)
(0.0226965 0.0151851 -0.0126452)
(-0.0225205 -0.012167 0.00260484)
(-0.0194893 0.0037978 -0.00233411)
(-0.00318737 -0.00558066 0.00104448)
(0.00397833 0.000359294 -6.10484e-07)
(0.000821475 -4.11994e-05 -3.21569e-05)
(0.00138681 2.32156e-05 7.03567e-07)
(0.00140138 5.05214e-06 3.94245e-07)
(0.00139094 6.09839e-06 3.06191e-07)
(0.00138477 3.96077e-06 3.72655e-07)
(0.00137937 2.87594e-06 4.02412e-07)
(0.00137429 1.69466e-06 3.43462e-07)
(0.00137056 8.79201e-07 3.50534e-07)
(0.00136755 4.29006e-07 3.58014e-07)
(0.00136434 3.6478e-07 3.41286e-07)
(0.00136127 3.12049e-07 3.2214e-07)
(0.00135896 7.18428e-08 2.92978e-07)
(0.00135572 4.96833e-07 6.46711e-07)