/*--------------------------------*- C++ -*----------------------------------*\
| =========                 |                                                 |
| \\      /  F ield         | OpenFOAM: The Open Source CFD Toolbox           |
|  \\    /   O peration     | Version:  5.0                                   |
|   \\  /    A nd           | Web:      www.OpenFOAM.org                      |
|    \\/     M anipulation  |                                                 |
\*---------------------------------------------------------------------------*/
FoamFile
{
    version     2.0;
    format      ascii;
    class       surfaceVectorField;
    location    "4.3";
    object      Uf;
}
// * * * * * * * * * * * * * * * * * * * * * * * * * * * * * * * * * * * * * //

dimensions      [0 1 -1 0 0 0 0];

internalField   nonuniform List<vector> 
24781
(
(-0.00403341 0.00335329 1.82129e-06)
(-0.00144351 0.00162059 3.16298e-05)
(-0.00376839 0.00228446 0.000392996)
(-0.00165597 0.00218556 0.000149671)
(-5.50867e-05 0.00250773 3.11223e-05)
(-0.00406859 0.00356663 -0.000317087)
(-0.000386042 0.000995775 0.000195527)
(-0.000741598 -0.005891 0.000201843)
(-0.00121638 0.000488331 0.000589553)
(7.04271e-05 0.000795564 8.18279e-07)
(0.0012603 0.000860669 -9.27621e-05)
(0.00256838 0.00574143 0.000992935)
(0.00215917 -8.66917e-05 6.68812e-05)
(0.00197033 -0.00210907 6.51487e-05)
(0.00131392 -0.000152245 0.000161382)
(0.000821386 0.00307332 0.000987688)
(0.00637875 0.00310072 0.000138693)
(0.00409221 0.00615152 -0.00246598)
(0.0017161 0.000815302 8.23328e-05)
(0.00109141 -0.000606458 3.95642e-05)
(0.00138449 -0.00199154 3.51261e-05)
(0.00233959 0.00167432 6.64908e-05)
(0.00239363 0.00190363 1.09641e-05)
(0.00136908 0.00125504 4.46046e-05)
(0.00456748 0.00195356 5.50706e-05)
(0.000992394 0.000127297 7.06088e-05)
(0.000753082 -3.36179e-06 1.38542e-05)
(0.000829216 2.3927e-05 1.61094e-05)
(0.000816611 5.47893e-06 1.80589e-05)
(0.000864689 -1.43619e-06 -1.48253e-06)
(0.00059345 6.78992e-06 -1.56461e-06)
(0.00113295 -5.79901e-06 -1.79118e-06)
(0.000606241 4.45217e-06 -3.33281e-06)
(0.000614026 -2.75256e-05 -2.07544e-06)
(0.0010457 8.78319e-06 1.59374e-06)
(0.00107608 -6.37807e-05 3.74484e-06)
(0.000569501 -1.07318e-05 -4.51936e-06)
(0.00100207 6.5913e-06 -1.03306e-06)
(0.000947815 -1.7988e-05 -5.42218e-06)
(0.00084017 -6.43906e-07 -2.10656e-08)
(0.000870313 1.45713e-05 -4.99069e-07)
(0.00113861 -1.15915e-06 1.4234e-07)
(0.000835847 -7.6643e-07 7.07431e-09)
(0.000826597 1.50391e-06 -2.76487e-07)
(0.00111222 -2.40744e-06 1.48346e-07)
(0.000832049 -2.05879e-07 7.61795e-08)
(0.000833468 1.23679e-06 1.45004e-07)
(0.00111114 -7.84776e-07 1.80241e-07)
(0.000830229 -7.53481e-08 2.05634e-08)
(0.000830143 3.69251e-07 4.56383e-08)
(0.00110679 -4.90307e-07 1.80813e-07)
(0.00082893 1.55848e-07 3.30023e-08)
(0.000829298 2.16115e-07 2.78132e-08)
(0.00110532 -1.78608e-07 1.7764e-07)
(0.000826585 2.46489e-07 6.38358e-08)
(0.000827638 -1.96633e-07 6.331e-08)
(0.00110293 2.59661e-07 1.65162e-07)
(0.000824956 1.88736e-07 1.57737e-07)
(0.000825929 -7.78864e-08 5.23689e-08)
(0.00110031 1.59206e-07 1.90597e-07)
(0.000823672 8.79989e-08 1.57558e-07)
(0.000824359 -4.27674e-07 1.45596e-07)
(0.00109844 1.99717e-07 1.97989e-07)
(0.00082204 -2.46004e-08 7.00504e-08)
(0.000822751 1.38696e-07 5.46714e-08)
(0.00109647 -4.92649e-08 1.7962e-07)
(0.000820521 3.96849e-08 7.4707e-08)
(0.000821378 -4.23374e-08 7.19991e-08)
(0.00109446 -5.52131e-08 1.92763e-07)
(0.000818655 -6.00192e-08 7.47336e-08)
(0.000819639 -2.01561e-07 8.8899e-08)
(0.00109213 1.28736e-07 2.02258e-07)
(0.000817343 -1.95153e-07 7.31078e-08)
(0.000817931 4.51227e-08 5.94137e-08)
(0.00108999 -3.02332e-07 2.19523e-07)
(0.000815795 -1.1468e-07 6.62172e-08)
(0.000816532 2.13379e-09 7.24146e-08)
(0.0010882 -1.82138e-07 2.06155e-07)
(0.000814096 -1.20994e-07 3.81732e-08)
(0.000814851 2.55586e-08 6.76424e-08)
(0.00108594 -4.98106e-08 1.90702e-07)
(0.0008127 -1.5029e-07 2.54464e-08)
(0.000813325 1.98842e-07 2.0292e-07)
(0.00108387 -1.70531e-07 1.46212e-07)
(0.000811151 -1.14258e-07 5.49946e-08)
(0.000811949 -2.29975e-07 4.99664e-08)
(0.00108196 -1.48775e-07 1.83854e-07)
(0.000809647 -8.68119e-08 6.86051e-08)
(0.000810414 7.68177e-08 6.13244e-08)
(0.00107991 -8.72018e-08 1.79173e-07)
(0.000808079 -1.63276e-08 6.11807e-08)
(0.000808839 8.10759e-08 6.20303e-08)
(0.00107786 -5.42539e-08 1.88102e-07)
(0.000806458 6.34808e-08 4.81325e-08)
(0.000807284 9.1663e-08 7.27821e-08)
(0.00107571 8.51929e-08 1.78226e-07)
(0.000805032 2.44065e-07 6.98969e-08)
(0.000805938 -4.58436e-08 4.93746e-08)
(0.00107382 1.07514e-07 1.7834e-07)
(0.000803248 1.71859e-07 8.43599e-08)
(0.000804082 5.90471e-07 1.29972e-07)
(0.00107157 5.21309e-07 9.21138e-08)
(0.000801847 -2.19285e-07 7.80749e-08)
(0.000802192 -3.03857e-07 5.28823e-08)
(0.00106935 -1.25033e-07 2.19592e-07)
(0.000799863 -4.04167e-07 5.23532e-08)
(0.000800834 -7.0872e-07 -2.34011e-08)
(0.00106725 -5.73984e-07 3.74451e-07)
(0.000798402 -3.5402e-07 4.00744e-08)
(0.000799285 -5.41816e-07 2.45239e-08)
(0.00106477 -6.00457e-07 3.20237e-07)
(0.000797182 -8.78012e-08 6.67238e-08)
(0.000798031 1.26136e-07 1.09087e-07)
(0.00106303 -3.64272e-07 1.11727e-07)
(0.000796242 1.35862e-07 6.28073e-08)
(0.000796884 -1.6548e-06 9.03978e-08)
(0.00106179 1.22341e-07 2.39994e-07)
(0.000794536 1.54903e-07 5.2867e-08)
(0.000795313 2.63313e-07 4.71376e-08)
(0.00106 2.45668e-07 1.78049e-07)
(0.000792679 1.52667e-07 7.95175e-08)
(0.000793608 9.42767e-08 4.75893e-08)
(0.00105756 2.21549e-07 2.11553e-07)
(0.000791007 2.34571e-07 6.69864e-08)
(0.000792051 3.11607e-07 7.29636e-08)
(0.00105514 2.35734e-07 1.6859e-07)
(0.000789423 4.39804e-07 5.65332e-08)
(0.000790563 6.21494e-07 2.47094e-08)
(0.00105285 4.08033e-07 1.32819e-07)
(0.000789001 3.90991e-07 6.74864e-08)
(0.000789149 -2.18288e-06 8.39694e-08)
(0.00105162 7.81401e-07 2.14295e-07)
(0.000787088 9.95545e-08 4.22644e-08)
(0.000787659 3.54035e-07 1.69218e-07)
(0.00105018 3.25484e-07 1.83512e-07)
(0.000785558 -5.55008e-08 5.37793e-08)
(0.000786098 5.55061e-08 3.28716e-08)
(0.00104781 1.2364e-08 1.75612e-07)
(0.000784084 -2.99715e-07 8.72362e-08)
(0.000784594 -6.12309e-08 7.49366e-08)
(0.0010457 -1.28468e-07 1.63463e-07)
(0.00078324 -4.78179e-07 5.15342e-08)
(0.000783376 -3.39913e-07 3.91116e-08)
(0.00104438 -6.53012e-07 2.406e-07)
(0.000780889 -3.35956e-07 1.97765e-08)
(0.000782073 2.39377e-06 5.28561e-08)
(0.00104213 -5.81538e-07 9.62354e-08)
(0.000779616 -1.42026e-07 3.93508e-08)
(0.000780539 -2.65979e-07 4.18261e-08)
(0.00103966 -2.81084e-07 1.73462e-07)
(0.00077824 -2.07222e-08 3.324e-08)
(0.000779094 2.33745e-07 5.84606e-08)
(0.00103797 -1.29944e-07 1.41228e-07)
(0.000777078 -4.06655e-08 4.13715e-08)
(0.000777622 4.2444e-07 4.84536e-08)
(0.00103618 1.08794e-08 1.10796e-07)
(0.000775557 -2.53407e-07 5.58934e-08)
(0.000776185 -1.30538e-07 5.44563e-08)
(0.00103454 -1.85107e-07 1.93644e-07)
(0.000773827 -3.5945e-07 3.04132e-08)
(0.000774665 -3.67844e-07 -1.32021e-08)
(0.00103226 -5.21064e-07 2.17229e-07)
(0.000773359 8.75344e-07 6.19172e-08)
(0.00103007 -4.26711e-07 1.12893e-07)
(0.0024698 0.000470508 6.0931e-05)
(-0.00128101 -0.00215907 0.000176422)
(0.00121658 -0.00239622 0.000175505)
(-0.000863671 -0.00458101 -7.2796e-05)
(-0.000983147 -0.00317367 0.000251468)
(-0.000957469 -0.00230979 -0.000305032)
(0.00112262 -0.00438053 8.32372e-05)
(0.000698967 0.00278414 -3.00556e-05)
(0.00397411 0.00185956 9.44874e-05)
(0.000625574 -0.0049139 -8.63487e-05)
(0.000711545 -0.00710649 -6.56603e-05)
(0.000933462 -0.00779157 0.000123081)
(-0.00151453 -0.000748533 -5.53716e-05)
(0.00522119 0.00595589 0.00010857)
(0.00500625 0.00140359 -0.000213033)
(0.00861565 0.000387237 -3.60981e-05)
(-0.000115248 0.00059706 -0.000354662)
(0.00917031 0.0104 -0.000514584)
(-0.0109119 -0.00464406 0.000107275)
(0.00316767 0.00158616 0.000484424)
(-0.015503 -0.00379748 0.000995487)
(-0.000271799 -0.000835528 5.50463e-05)
(-0.000443506 0.00454137 -9.48855e-06)
(0.00672187 -0.000156389 3.54286e-05)
(-0.00171427 -6.39049e-05 -0.000135696)
(-0.00150396 -0.00137143 7.31617e-06)
(-0.000896153 0.00242616 -1.8786e-05)
(-0.000577266 -0.000804301 -4.85676e-05)
(-0.000728665 -0.00152226 3.80736e-05)
(-0.0014062 -0.00115157 -1.67282e-05)
(0.000880118 0.000293692 5.29803e-05)
(0.00126482 0.00021103 -8.35088e-06)
(0.00167019 0.000918857 4.87807e-05)
(0.00140106 0.000303885 -8.7172e-05)
(0.00134769 0.000117038 1.18124e-05)
(0.000325207 -1.57743e-05 -2.55814e-06)
(0.000480691 1.20896e-07 -3.19187e-06)
(0.000463585 -4.21033e-06 -2.69757e-07)
(0.000770513 1.71754e-06 -7.76799e-07)
(0.000329287 4.17521e-06 -2.24415e-06)
(0.000591473 -4.25781e-05 -3.53699e-06)
(0.000603715 8.16709e-06 -9.77114e-07)
(0.000827664 6.01442e-06 -7.54563e-07)
(0.000883097 -4.02538e-06 -1.58902e-06)
(0.00117852 1.33366e-05 -9.53494e-07)
(0.000599363 2.28217e-06 -3.86467e-06)
(0.000610802 3.02472e-06 -4.73817e-06)
(0.000983297 -2.98884e-06 -4.76769e-06)
(0.00100986 -1.28244e-06 -6.07042e-06)
(0.000830119 5.49941e-07 -1.38695e-07)
(0.000819786 -1.97806e-06 -4.36533e-07)
(0.00108933 -3.57274e-07 6.84871e-08)
(0.000830118 2.37177e-07 1.14495e-07)
(0.000833092 -1.21687e-06 1.71323e-07)
(0.00110917 -4.18948e-08 2.12049e-07)
(0.000829342 -8.73442e-08 5.28939e-08)
(0.000829748 -6.63853e-07 3.91546e-08)
(0.00110504 -4.98832e-07 1.81612e-07)
(0.0008282 -2.69873e-07 5.81094e-08)
(0.000829077 -4.57842e-07 6.04348e-08)
(0.00110447 -4.61219e-07 1.88719e-07)
(0.000826761 -3.30229e-07 5.18466e-08)
(0.000827568 -4.37556e-07 5.28368e-08)
(0.00110262 -6.88036e-07 1.84557e-07)
(0.000825376 -2.31008e-07 4.01976e-08)
(0.000826057 -3.66263e-07 5.28838e-08)
(0.00110083 -4.4638e-07 1.82912e-07)
(0.000823397 -1.25629e-07 4.27394e-08)
(0.000824493 2.5398e-07 4.38836e-08)
(0.00109855 -3.57196e-07 1.67265e-07)
(0.000821979 -3.09399e-08 5.66145e-08)
(0.000822871 -2.00052e-07 4.75741e-08)
(0.00109626 -1.12439e-07 1.89369e-07)
(0.000820773 -5.7509e-08 8.61856e-08)
(0.000821346 -9.29563e-07 7.61028e-08)
(0.00109461 -6.03637e-08 2.09189e-07)
(0.000818647 -3.80936e-08 7.35885e-08)
(0.000819664 1.06301e-06 1.21757e-07)
(0.00109231 -1.43998e-07 1.40445e-07)
(0.000817217 2.7072e-08 5.87162e-08)
(0.000818013 -3.13178e-07 3.672e-08)
(0.00108993 2.68888e-08 1.92721e-07)
(0.000815599 6.00742e-08 7.38413e-08)
(0.000816573 5.27615e-08 6.01753e-08)
(0.00108799 5.59976e-08 1.80888e-07)
(0.000813982 2.99654e-07 2.32346e-07)
(0.000815149 7.4198e-08 5.49867e-08)
(0.00108576 1.27347e-07 1.8123e-07)
(0.000812646 3.82071e-07 2.27489e-07)
(0.000813426 -3.1019e-07 2.24071e-07)
(0.00108372 6.75492e-07 1.95828e-07)
(0.000811193 1.31192e-07 5.62925e-08)
(0.000811634 5.87689e-07 6.82891e-08)
(0.00108197 3.6649e-07 1.13576e-07)
(0.000809604 -6.71874e-08 5.47493e-08)
(0.000810166 1.05489e-07 5.66751e-08)
(0.00107996 4.11299e-08 1.80831e-07)
(0.000808062 -1.77896e-07 7.36282e-08)
(0.000808701 9.40788e-08 4.28014e-08)
(0.00107778 -1.59134e-07 1.78019e-07)
(0.000806655 -2.54346e-07 7.40315e-08)
(0.000807189 2.63988e-08 8.81368e-08)
(0.00107579 -2.54941e-07 1.71885e-07)
(0.000805301 -5.62104e-07 1.09425e-07)
(0.000805555 -3.3935e-07 5.43283e-08)
(0.0010741 -3.89956e-07 1.8352e-07)
(0.000802711 -6.47896e-07 9.85191e-08)
(0.000803978 -1.38504e-06 5.5228e-08)
(0.00107139 -1.12778e-06 4.11063e-07)
(0.000801325 -3.86265e-07 -4.85697e-08)
(0.000802522 -3.55561e-07 -1.76137e-08)
(0.00106852 -6.46582e-07 1.69623e-07)
(0.000800168 -1.75949e-07 -5.12454e-08)
(0.000801099 2.04635e-07 5.11312e-08)
(0.00106707 -4.31498e-07 8.13907e-08)
(0.000798804 3.11288e-07 9.35102e-08)
(0.000799894 4.72399e-07 3.77128e-08)
(0.00106546 -9.29887e-08 9.27054e-08)
(0.000797848 6.44459e-07 1.32767e-07)
(0.000798446 -3.35135e-06 6.61677e-08)
(0.00106382 8.8647e-07 3.75373e-07)
(0.000796032 4.28968e-07 7.47417e-08)
(0.000796613 -2.29159e-06 5.02882e-08)
(0.00106202 8.36463e-07 2.5042e-07)
(0.000794309 1.89266e-07 4.18598e-08)
(0.000795012 5.63338e-07 6.54263e-08)
(0.00105965 3.20766e-07 1.75711e-07)
(0.000792967 1.77862e-07 4.10276e-08)
(0.000793593 -4.3576e-08 4.49045e-08)
(0.00105751 1.81198e-07 1.73136e-07)
(0.000791621 3.07598e-07 3.07016e-08)
(0.000792212 1.16447e-07 5.07065e-08)
(0.00105573 2.75216e-07 1.77919e-07)
(0.000790238 5.44881e-07 5.21273e-08)
(0.000790858 8.94536e-08 3.50898e-08)
(0.00105404 5.30155e-07 2.056e-07)
(0.00078791 5.47896e-07 1.85675e-07)
(0.00078915 -8.01903e-07 5.7672e-08)
(0.00105151 9.14409e-07 1.53219e-07)
(0.000786587 2.67163e-07 1.59867e-07)
(0.000787306 3.39026e-07 1.87297e-07)
(0.00104897 5.75146e-07 1.63506e-07)
(0.000785169 3.77436e-08 5.40159e-08)
(0.00078581 -1.11645e-07 9.54014e-09)
(0.00104718 1.7927e-07 1.83131e-07)
(0.000783755 -1.26534e-07 2.6823e-08)
(0.000784389 -1.00803e-07 7.13335e-08)
(0.00104527 -6.14911e-08 1.73705e-07)
(0.000782339 -3.45596e-07 4.04293e-08)
(0.000783103 1.24569e-07 5.77192e-08)
(0.00104336 -2.69496e-07 1.37773e-07)
(0.000781683 -3.05792e-07 7.49092e-08)
(0.000782124 3.03894e-07 8.72549e-08)
(0.00104214 -6.5806e-07 2.54075e-07)
(0.000780024 -9.72863e-08 6.09308e-08)
(0.000780801 -3.05587e-08 7.43102e-08)
(0.0010405 -1.84164e-07 1.76621e-07)
(0.000778494 1.30738e-08 7.36772e-08)
(0.000779233 -4.94355e-08 9.03383e-08)
(0.00103834 -1.35032e-07 2.02823e-07)
(0.000776704 3.86633e-08 6.15366e-08)
(0.000777655 -5.93254e-09 5.95887e-08)
(0.0010362 1.24249e-07 2.37496e-07)
(0.000775292 -7.94931e-08 -1.46186e-08)
(0.000776038 9.89328e-08 6.17085e-08)
(0.00103402 -4.2178e-08 1.55041e-07)
(0.000774103 -1.65277e-07 1.82792e-08)
(0.00077456 5.96469e-08 -8.53129e-09)
(0.00103221 -2.08375e-07 1.2034e-07)
(0.000773564 -1.48915e-07 1.17918e-07)
(0.00103086 -2.66728e-07 2.33134e-07)
(-0.00297983 -0.00352644 8.55057e-05)
(-0.00255883 -0.00217815 0.000470997)
(-0.00229152 -0.00314374 0.000287779)
(4.65857e-05 -2.84961e-05 -0.000178941)
(0.00228563 0.00768478 0.000549912)
(-0.00191943 0.00606233 -0.000374576)
(0.000299558 0.00598379 -7.92645e-05)
(0.00350679 0.00724725 0.000759941)
(-5.93874e-05 0.00661426 0.000501876)
(-0.000663924 -0.000774141 -0.000133456)
(-0.00154674 0.000561238 -5.06924e-05)
(-0.00117688 6.78743e-05 -0.000365744)
(-0.00122701 0.000713596 -0.000483549)
(0.00530229 0.00275535 0.000122325)
(-0.00416405 -0.00248187 -9.14368e-06)
(0.00283118 -0.00467986 -0.000294164)
(-0.00392043 0.00230977 0.000238916)
(0.00204563 0.00107769 0.000498096)
(-0.00427637 0.00454499 0.000533975)
(0.00287771 -0.00164676 -0.000663546)
(-0.00689066 -0.0062274 0.000121302)
(0.00109709 0.00081304 -0.00158251)
(-0.0036394 -0.000514184 0.000259128)
(-0.00133783 0.00707615 0.000354294)
(0.00521423 0.00601034 0.000675035)
(0.00286229 -0.000258402 -7.90594e-05)
(-0.0105035 -0.00543818 -7.33794e-06)
(-0.000311483 -0.000902784 -5.43221e-05)
(-0.00149605 -0.00846773 -0.000559613)
(-0.00706837 -0.00559076 -0.000304446)
(-0.00175233 -0.000579906 -9.16662e-05)
(0.000415752 -0.00272339 7.11401e-05)
(0.00159463 0.000694365 -2.78871e-05)
(0.000565649 0.00138418 7.73386e-05)
(0.000474096 -0.000161136 -0.000231517)
(0.00100856 1.95567e-05 1.61706e-05)
(0.00113424 0.000106896 8.51536e-05)
(0.000771305 -0.000436313 2.13571e-05)
(0.00118305 -1.62703e-05 4.1133e-05)
(0.000955772 0.00044388 5.92386e-05)
(0.00037013 -1.87648e-05 5.54581e-06)
(0.000485762 -5.35002e-06 -2.70083e-06)
(0.000787282 -3.0942e-05 3.53484e-06)
(0.000336848 -6.61385e-05 2.04117e-05)
(0.000690842 -2.93699e-05 1.6806e-05)
(0.000614074 -6.05249e-05 5.19962e-05)
(0.000469031 -4.472e-06 2.28738e-07)
(0.000374946 -2.00552e-05 2.95734e-06)
(0.000672727 -4.54717e-05 1.01584e-05)
(0.000560884 -4.90358e-05 -1.46015e-06)
(0.000309203 -2.49844e-05 -1.69516e-06)
(0.000831406 -8.28536e-06 -1.27137e-06)
(0.000884093 -1.38202e-05 -2.01531e-06)
(0.00117508 -1.8577e-05 -1.13749e-06)
(0.000602042 4.95834e-08 -4.24143e-06)
(0.000613295 2.65726e-06 -4.87346e-06)
(0.000988717 1.68323e-06 -5.20897e-06)
(0.00103383 7.70193e-06 -5.72693e-06)
(0.000832014 -3.27602e-06 -1.26714e-07)
(0.000826216 -3.29936e-06 -2.37717e-07)
(0.00109557 -6.62942e-06 8.02176e-08)
(0.000831072 -1.83271e-06 9.60257e-08)
(0.000834925 -2.37881e-06 1.35079e-07)
(0.00111101 -4.09337e-06 2.05086e-07)
(0.000829859 -9.71063e-07 4.66886e-08)
(0.000830843 -1.1394e-06 1.48684e-08)
(0.0011063 -2.04091e-06 1.81195e-07)
(0.000828436 -6.60286e-07 5.51646e-08)
(0.000829476 -7.31925e-07 5.47259e-08)
(0.00110511 -1.32639e-06 1.85446e-07)
(0.000826846 -4.94193e-07 5.38739e-08)
(0.000827782 -4.85414e-07 5.27421e-08)
(0.00110296 -9.11621e-07 1.84127e-07)
(0.00082521 -4.6697e-07 5.65728e-08)
(0.000826096 -3.58049e-07 5.35043e-08)
(0.00110073 -6.92209e-07 1.84114e-07)
(0.000823944 -4.33333e-07 4.87171e-08)
(0.000824539 -2.42296e-07 5.67051e-08)
(0.00109887 -7.17799e-07 1.87019e-07)
(0.000822197 -3.16003e-07 6.70532e-08)
(0.00082302 2.04192e-07 4.96257e-08)
(0.00109684 -5.35421e-07 1.6669e-07)
(0.000820357 -3.94094e-07 1.1166e-07)
(0.000821251 -1.5858e-06 4.46287e-08)
(0.00109442 -3.85279e-07 2.48e-07)
(0.000818899 -3.73554e-07 8.4916e-08)
(0.000819692 7.12553e-07 8.43702e-08)
(0.00109224 -7.1851e-07 1.94441e-07)
(0.000817358 -1.81869e-07 3.81716e-08)
(0.000818254 -2.61955e-07 3.75563e-08)
(0.00109024 -3.11619e-07 1.73985e-07)
(0.00081609 -8.40162e-08 4.13224e-08)
(0.000816696 -2.78274e-07 5.0558e-08)
(0.00108832 -2.1622e-07 1.7706e-07)
(0.000814839 -3.31255e-09 4.66572e-08)
(0.00081525 -3.20531e-07 5.01841e-08)
(0.00108671 -4.27812e-08 1.80266e-07)
(0.000812222 9.33995e-08 6.49203e-08)
(0.000813547 2.97607e-07 2.1528e-08)
(0.00108417 3.44158e-08 2.29567e-07)
(0.000810573 1.39437e-07 6.86754e-08)
(0.00081169 -2.60046e-07 7.30015e-08)
(0.00108117 2.52141e-07 2.46915e-07)
(0.000809277 9.07297e-08 4.47316e-08)
(0.000810104 -1.99584e-07 4.01462e-08)
(0.00107925 1.39602e-07 1.78555e-07)
(0.000807841 2.51151e-08 5.72957e-08)
(0.000808619 -1.07028e-07 3.40502e-08)
(0.00107749 1.06463e-07 1.83752e-07)
(0.00080615 -6.19215e-08 6.84443e-08)
(0.00080708 5.66962e-08 6.98338e-08)
(0.00107542 -1.22142e-08 1.89982e-07)
(0.00080416 -2.179e-07 1.3147e-10)
(0.000805361 1.74442e-08 5.90125e-08)
(0.00107274 -1.084e-07 1.9366e-07)
(0.000803773 -1.9375e-08 -6.08818e-08)
(0.000804226 9.33182e-07 -1.16013e-08)
(0.00107126 -4.22134e-07 -8.55797e-08)
(0.000802351 3.82809e-07 8.20656e-08)
(0.000803023 8.2548e-07 -2.87053e-09)
(0.00107023 4.23842e-07 8.5848e-08)
(0.000800687 4.99734e-07 1.40094e-07)
(0.000801242 4.20759e-07 1.2054e-07)
(0.00106794 6.84106e-07 1.75603e-07)
(0.000799711 4.83419e-07 1.03613e-08)
(0.000799871 5.38236e-07 3.44613e-08)
(0.00106642 7.33172e-07 1.25561e-07)
(0.000797197 3.13307e-07 -1.63061e-08)
(0.000798231 -1.26297e-07 6.33537e-09)
(0.00106419 5.69147e-07 3.78011e-08)
(0.000795505 1.12701e-07 4.09681e-08)
(0.000796361 1.46631e-07 2.60565e-08)
(0.00106108 2.72357e-07 2.06139e-08)
(0.000794275 7.11245e-08 6.84773e-08)
(0.00079496 4.61162e-07 7.76787e-08)
(0.00105918 4.8424e-08 1.60445e-07)
(0.000792833 9.32046e-08 5.45816e-08)
(0.00079362 -1.30877e-07 4.91342e-08)
(0.0010575 1.26859e-07 1.78515e-07)
(0.000791462 2.3512e-08 5.50995e-08)
(0.000792124 1.38279e-08 5.36097e-08)
(0.00105557 1.1246e-07 1.73471e-07)
(0.000789946 -1.2159e-07 4.06275e-08)
(0.000790677 -1.12211e-07 6.73951e-08)
(0.00105365 -2.82854e-08 1.93832e-07)
(0.000788389 -1.93855e-07 5.92545e-08)
(0.000789061 -3.80837e-07 2.12716e-08)
(0.00105167 -2.533e-07 1.52972e-07)
(0.000786501 -1.10291e-07 3.7025e-08)
(0.000787411 -6.39585e-07 3.68966e-08)
(0.00104926 -2.37221e-07 2.83562e-07)
(0.000785053 1.86285e-08 2.68388e-08)
(0.000785971 2.05913e-07 1.39232e-08)
(0.00104701 -5.98862e-08 1.50972e-07)
(0.000783672 2.09813e-07 1.02234e-07)
(0.000784627 -3.07228e-07 6.27952e-08)
(0.00104514 1.18658e-07 1.82801e-07)
(0.000782779 4.0191e-07 1.04536e-07)
(0.000783342 -1.70642e-06 1.31794e-07)
(0.00104364 4.92849e-07 2.56479e-07)
(0.000781498 3.52816e-07 8.66599e-08)
(0.000782061 4.51008e-07 6.24305e-08)
(0.00104224 6.3071e-07 1.48638e-07)
(0.000779942 2.0277e-07 1.03713e-07)
(0.000780612 -2.88491e-08 4.62989e-08)
(0.00104032 3.66496e-07 1.84199e-07)
(0.000778421 1.56529e-07 7.62592e-08)
(0.000779174 -1.41489e-08 7.79374e-08)
(0.00103836 2.61235e-07 1.78881e-07)
(0.00077692 2.50613e-07 5.97601e-08)
(0.000777771 1.30877e-07 6.1448e-08)
(0.0010363 2.31994e-07 1.69745e-07)
(0.00077533 2.86574e-07 6.78172e-08)
(0.000776081 3.68246e-07 6.31623e-08)
(0.00103413 4.63671e-07 1.68426e-07)
(0.000773798 1.79512e-07 9.1069e-08)
(0.000774424 1.74545e-07 5.06409e-08)
(0.00103198 2.8539e-07 1.74477e-07)
(0.00077334 -1.19738e-06 1.39261e-07)
(0.00103066 1.79372e-07 2.08853e-07)
(-0.0220909 -0.00241262 0.00275029)
(-0.0539641 -0.0295498 0.000303935)
(-0.0205076 -0.0563756 0.000589548)
(-0.021745 -0.0304644 0.00811498)
(0.0099983 0.000466495 0.000488487)
(0.000611484 0.00393153 0.000456778)
(0.0142737 -0.000223268 0.000835438)
(0.00505389 0.00233692 0.0013125)
(-0.00443541 -0.000215276 -0.000411413)
(0.000233227 -0.00183718 5.23509e-06)
(-0.00927027 -0.00386309 0.000217131)
(-0.00131688 0.00116076 2.3147e-05)
(-0.000732245 0.00811038 0.000315838)
(0.0057641 0.00649849 5.63962e-05)
(4.78101e-05 0.00817597 0.000216098)
(0.00781387 0.0101443 0.000288955)
(0.00926228 0.00594447 -0.000361258)
(0.00865699 0.00885889 0.000591163)
(-0.00212373 0.0100864 0.00103174)
(-0.0311129 0.00470091 0.000328487)
(-0.00240504 0.0112552 0.00113516)
(-0.0099742 0.00435102 0.00227431)
(0.00995028 -0.00563376 -9.29198e-05)
(0.023917 -0.000579814 -4.61157e-05)
(0.0121862 0.000153099 9.01225e-05)
(0.0210399 -0.000220368 0.000516432)
(0.0207001 0.000877713 0.000622912)
(0.00208763 0.00077498 -8.17127e-05)
(0.00142216 0.000563687 -6.00697e-06)
(0.00191023 0.000585396 -2.03756e-05)
(0.00246763 6.08991e-05 2.53522e-05)
(0.00126893 0.000941935 -2.3228e-05)
(0.00175438 0.00117784 -0.000153984)
(0.000884598 0.00209393 -2.54944e-05)
(0.00144951 0.000650104 -3.40867e-05)
(0.00155795 0.000635421 -3.0352e-08)
(0.00197748 0.000720519 -4.78813e-05)
(0.00138053 0.000888593 -1.82138e-05)
(0.00106985 0.000340934 0.000114942)
(0.00131906 0.000583827 2.39775e-05)
(0.00121148 0.000448153 7.44177e-05)
(0.00106331 -8.43573e-05 1.31028e-05)
(0.000423338 -3.58695e-05 2.22228e-05)
(0.000488882 -0.000111128 4.32212e-05)
(0.000618926 -7.7694e-05 7.03962e-05)
(0.000290424 -4.02104e-05 1.74139e-05)
(0.000841973 -6.8666e-06 -9.82238e-07)
(0.000854862 -8.97176e-06 -2.44702e-06)
(0.00118372 -1.92359e-05 -1.26696e-06)
(0.000606232 -1.46779e-05 -4.39231e-06)
(0.000631736 1.24483e-05 -5.11141e-06)
(0.00101153 -3.12397e-05 -4.47025e-06)
(0.00107142 3.30128e-05 -4.685e-06)
(0.000836541 -1.03082e-06 2.39542e-08)
(0.000833386 3.08602e-06 6.31252e-08)
(0.00110793 -1.29645e-06 7.17085e-08)
(0.000833322 -1.33205e-06 5.3961e-08)
(0.000834564 -6.26659e-07 8.354e-08)
(0.00111499 -2.86352e-06 2.00841e-07)
(0.000830689 -8.02448e-07 2.28927e-08)
(0.000831517 3.12802e-07 1.54839e-07)
(0.00110856 -1.54064e-06 1.70695e-07)
(0.000828816 -5.68786e-07 5.23041e-08)
(0.000829776 -4.37726e-07 1.00346e-07)
(0.00110591 -1.13132e-06 1.84859e-07)
(0.00082706 -3.67511e-07 5.23723e-08)
(0.000828038 -3.29199e-07 5.26583e-08)
(0.00110343 -7.18468e-07 1.84183e-07)
(0.000825356 -2.10027e-07 5.36356e-08)
(0.000826295 -2.6182e-07 4.76013e-08)
(0.00110108 -4.46906e-07 1.83937e-07)
(0.000823665 -1.91078e-07 5.7616e-08)
(0.000824564 -1.64026e-07 4.76592e-08)
(0.00109875 -2.0775e-07 1.8426e-07)
(0.000822186 -2.53735e-07 2.72028e-08)
(0.000822943 -1.08036e-07 5.75224e-08)
(0.00109668 -3.54703e-07 1.93108e-07)
(0.000820363 -2.68432e-07 1.73263e-08)
(0.000821234 3.99277e-08 2.38537e-08)
(0.00109439 -3.4087e-07 8.91986e-08)
(0.000819193 -3.71884e-07 3.70255e-08)
(0.000819564 9.31016e-08 4.66395e-08)
(0.00109241 -3.86152e-07 1.88208e-07)
(0.000817521 -3.29855e-07 4.99385e-08)
(0.000818308 -1.8118e-07 1.53941e-08)
(0.00109056 -6.14556e-07 1.83322e-07)
(0.000815863 -2.29685e-07 5.94198e-08)
(0.000816823 -2.50933e-07 6.72311e-08)
(0.00108832 -2.82117e-07 1.86027e-07)
(0.000814079 -4.0198e-07 2.50641e-08)
(0.000815037 -4.40846e-08 3.5506e-08)
(0.00108607 -3.6008e-07 1.79931e-07)
(0.000812928 -3.8935e-07 2.95928e-08)
(0.000813564 -1.90813e-11 1.70275e-07)
(0.00108408 -6.98583e-07 1.65003e-07)
(0.000811198 -1.04649e-07 4.44828e-08)
(0.000812047 7.40456e-08 8.07717e-08)
(0.0010821 -3.24892e-07 1.71531e-07)
(0.000809432 1.12394e-07 2.94667e-08)
(0.000810375 5.61595e-09 5.06704e-08)
(0.00107977 2.56055e-08 1.83923e-07)
(0.00080786 2.58078e-07 4.65769e-08)
(0.0008088 -3.00809e-08 4.97113e-08)
(0.00107759 2.52552e-07 1.76139e-07)
(0.000806384 4.14045e-07 6.04054e-08)
(0.000807273 6.083e-08 6.57593e-08)
(0.00107552 4.24653e-07 1.73045e-07)
(0.000805078 7.61048e-07 4.7302e-08)
(0.000805791 6.59997e-07 4.85031e-08)
(0.00107359 6.93574e-07 1.13429e-07)
(0.00080386 8.12652e-07 4.64072e-08)
(0.000804286 8.20765e-07 1.32125e-07)
(0.00107205 1.3986e-06 1.58973e-07)
(0.000801788 5.07998e-07 3.55647e-08)
(0.000802638 1.57703e-07 4.14324e-08)
(0.0010699 8.62451e-07 2.73732e-07)
(0.000800351 4.45118e-07 1.49344e-08)
(0.00080116 3.61973e-07 3.56336e-08)
(0.00106745 6.16744e-07 1.74924e-07)
(0.000798657 1.8523e-07 3.04442e-08)
(0.000799544 -6.26364e-07 3.31468e-08)
(0.00106531 7.20608e-07 2.76283e-07)
(0.000797163 -1.15293e-07 4.86918e-08)
(0.000797854 -1.56246e-07 4.33471e-08)
(0.00106324 -8.65956e-08 1.78275e-07)
(0.000795769 -3.5348e-08 6.2751e-08)
(0.000796461 -3.70606e-08 5.22358e-08)
(0.00106137 -1.37732e-07 1.80754e-07)
(0.000794401 3.35088e-08 5.83445e-08)
(0.000795046 2.20508e-07 5.65901e-08)
(0.00105946 7.06805e-08 1.82563e-07)
(0.000792853 3.78984e-08 4.8161e-08)
(0.000793625 -7.89733e-08 4.65301e-08)
(0.00105759 2.76919e-08 1.78047e-07)
(0.000791369 4.55264e-09 6.59011e-08)
(0.000792083 7.10196e-08 4.26467e-08)
(0.00105554 5.33959e-08 1.72135e-07)
(0.000789836 -1.69985e-07 4.80535e-08)
(0.000790459 -9.38412e-09 7.15156e-08)
(0.00105358 -7.84386e-08 1.73559e-07)
(0.000788013 -3.54593e-07 -1.09109e-09)
(0.000788831 -2.24033e-07 3.06371e-08)
(0.00105125 -4.24017e-07 1.95714e-07)
(0.000786899 -2.71478e-07 1.3802e-08)
(0.000787517 7.88062e-07 -4.43681e-08)
(0.00104921 -5.69257e-07 4.09256e-08)
(0.00078551 -4.19622e-08 4.98646e-08)
(0.000786259 -8.01808e-08 6.18231e-08)
(0.00104762 -1.63059e-07 1.8919e-07)
(0.000784243 2.31292e-07 9.23339e-08)
(0.000784968 7.97246e-08 8.5997e-08)
(0.00104595 8.46581e-08 1.29702e-07)
(0.000782698 3.21845e-07 8.97099e-08)
(0.000783453 -7.69957e-07 8.62651e-08)
(0.001044 5.59094e-07 1.15252e-07)
(0.000781177 1.35988e-07 2.20744e-08)
(0.000781827 7.94168e-08 6.44503e-08)
(0.00104197 3.38408e-07 2.07919e-07)
(0.000779834 4.98774e-08 2.05138e-08)
(0.000780503 6.21798e-08 5.6395e-08)
(0.00104004 7.71127e-08 1.58426e-07)
(0.000778479 8.49064e-08 6.31313e-08)
(0.000779217 -6.43979e-09 4.81281e-08)
(0.00103817 7.22078e-08 1.65766e-07)
(0.000777099 2.13721e-07 6.48497e-08)
(0.000777932 9.73986e-07 4.47969e-08)
(0.00103645 1.28374e-07 1.07342e-07)
(0.00077506 2.38548e-07 4.59898e-08)
(0.000776112 1.15882e-06 1.44083e-08)
(0.00103409 3.77928e-07 1.71235e-07)
(0.000773809 2.14582e-07 9.88063e-08)
(0.000774391 -6.62636e-09 5.41176e-08)
(0.00103185 2.24278e-07 1.70572e-07)
(0.000773073 -1.35743e-06 1.02165e-07)
(0.00103028 3.47942e-07 1.95386e-07)
(-0.0330879 0.0408379 0.00110986)
(-0.00297147 -0.00732687 0.0186399)
(-0.0428104 -0.0681833 0.00303769)
(-0.00194112 0.0217156 -0.0153236)
(0.021602 -0.0842642 0.0153918)
(-0.0442517 -0.0212472 -0.00428973)
(-0.0162936 -0.000386091 0.00307886)
(-0.0356241 -0.00459304 0.00542375)
(-0.0359033 0.0279838 0.000616316)
(0.0435631 -0.0266856 0.00785422)
(0.0488136 -0.000943974 -0.00151782)
(0.0514057 -0.0266679 -0.00595273)
(0.0391192 -0.0137574 0.00352102)
(-0.00731215 0.00278482 0.00150666)
(-0.0433129 0.00164629 0.00182973)
(0.0112614 0.0447927 -0.0085329)
(-0.0124002 1.12306e-05 -0.00214706)
(0.0129224 -0.000369758 -0.00412018)
(-0.039999 -0.0129159 -0.0109246)
(0.0104608 -0.0278616 -0.000757027)
(-0.0163077 0.00500984 0.00633355)
(-0.00577515 -0.019319 -0.00367537)
(-0.0438671 -0.0136965 0.00141177)
(-0.0358518 0.0231276 -0.00892785)
(-0.0234357 0.0117754 0.00431805)
(0.00286952 0.00629889 -0.00110682)
(-0.0430555 -0.021637 0.0148928)
(-0.0307496 0.0110302 0.043443)
(-0.0299949 -0.0188418 -0.034541)
(-0.0497677 0.00231954 -0.0218372)
(-0.00797685 -0.00184761 0.000824037)
(-0.00333077 -0.00153422 0.000703431)
(-0.023043 -0.00390956 0.00192973)
(0.0117803 -0.000347767 -8.57774e-05)
(0.00228134 0.00262141 0.000580896)
(-0.0172911 -0.000880966 -0.000242492)
(-0.0169115 -0.0017481 -0.000157866)
(-0.0284449 0.0122125 0.000931931)
(-0.0110768 -0.0021788 0.000460156)
(-0.0173771 0.00439521 0.000388794)
(0.00587584 -0.0033567 0.000197167)
(0.00869877 -0.00442363 -6.45765e-05)
(0.00103403 -0.0014117 -5.2323e-05)
(0.0220093 -0.00797371 0.000189877)
(0.00655657 -0.00603313 0.000954156)
(0.0174707 0.00269971 0.000874281)
(0.0189343 0.00336872 -0.000406841)
(0.00452575 -9.49409e-05 0.000342433)
(0.00935032 -5.62368e-05 0.000397673)
(0.0154119 -0.00578311 0.00139855)
(-0.000218554 -0.000410324 4.54075e-06)
(0.000643332 0.00010167 -2.83997e-05)
(0.000567458 -0.000319933 -4.77925e-06)
(-0.000532968 -0.00083497 -3.46728e-05)
(-1.57646e-05 -0.000729661 6.58533e-06)
(-0.000932225 -0.000899966 8.56431e-05)
(-0.000156597 -0.00137104 -6.95667e-06)
(0.000338919 -0.000539103 -4.2299e-05)
(0.000463103 -0.000237934 -3.40869e-06)
(0.000323108 4.6556e-05 -2.59785e-06)
(0.000542941 -0.000442509 -5.77094e-06)
(0.000947855 5.13972e-05 7.80473e-05)
(0.000673331 -6.85855e-05 3.1745e-05)
(0.000913834 -3.56308e-05 8.85727e-06)
(0.000943329 -0.000110379 -3.03806e-06)
(0.000957501 -4.27466e-05 1.65155e-05)
(0.000834007 2.87889e-08 -1.40247e-06)
(0.00082127 1.90091e-06 -2.95661e-06)
(0.00109847 -3.82993e-06 -1.58364e-06)
(0.000587645 2.15728e-05 -2.18783e-06)
(0.000605423 -8.20022e-07 -2.04856e-06)
(0.00102591 5.07828e-05 2.92859e-06)
(0.00107498 -6.9724e-07 2.97551e-06)
(0.000834153 1.27485e-06 1.22704e-07)
(0.00083482 3.85334e-07 2.21885e-07)
(0.00111568 3.41845e-06 2.17694e-07)
(0.000832272 -3.0192e-07 1.84394e-07)
(0.000832591 -3.17467e-07 7.90003e-08)
(0.00111075 -3.12052e-07 1.84505e-07)
(0.000830743 -3.77152e-07 2.3231e-07)
(0.000831425 2.10348e-07 1.92943e-07)