/*--------------------------------*- C++ -*----------------------------------*\
| =========                 |                                                 |
| \\      /  F ield         | OpenFOAM: The Open Source CFD Toolbox           |
|  \\    /   O peration     | Version:  5.0                                   |
|   \\  /    A nd           | Web:      www.OpenFOAM.org                      |
|    \\/     M anipulation  |                                                 |
\*---------------------------------------------------------------------------*/
FoamFile
{
    version     2.0;
    format      ascii;
    class       surfaceVectorField;
    location    "4.3";
    object      Uf_0;
}
// * * * * * * * * * * * * * * * * * * * * * * * * * * * * * * * * * * * * * //

dimensions      [0 1 -1 0 0 0 0];

internalField   nonuniform List<vector> 
24781
(
(-0.00403767 0.00346692 3.8314e-06)
(-0.00151895 0.00171039 2.35402e-05)
(-0.00382034 0.00241456 0.000388279)
(-0.00167371 0.00228314 0.000158315)
(-0.000136882 0.00250684 3.70968e-05)
(-0.00404352 0.0037198 -0.000311866)
(-0.000458409 0.000975706 0.000194394)
(-0.000809425 -0.00589255 0.00020551)
(-0.00117937 0.000490673 0.000600345)
(0.000144714 0.000907382 9.92155e-06)
(0.00125246 0.000718425 -0.000100133)
(0.00252215 0.00569023 0.00120302)
(0.00215202 -0.000168584 6.16181e-05)
(0.00228749 -0.00226532 0.000107031)
(0.00144067 -0.000178464 0.000165753)
(0.000666059 0.00294185 0.000930171)
(0.00657357 0.00305626 3.70954e-05)
(0.00387174 0.0059048 -0.00258306)
(0.00170871 0.000847799 8.80022e-05)
(0.00109636 -0.00059352 4.75495e-05)
(0.00160053 -0.00195912 7.7185e-05)
(0.00235912 0.00170079 6.64469e-05)
(0.00238967 0.00196833 1.50223e-05)
(0.00138475 0.00124626 4.7499e-05)
(0.00475094 0.0020198 6.47618e-05)
(0.000968524 0.000112239 7.09387e-05)
(0.000738007 -1.04035e-05 1.38076e-05)
(0.00080727 1.03146e-05 1.49892e-05)
(0.000804632 9.40186e-09 1.81988e-05)
(0.000834232 -1.87277e-05 -1.55071e-06)
(0.000571564 -1.54925e-05 -1.8337e-06)
(0.0010912 -3.1573e-05 -1.69424e-06)
(0.000575221 -1.37074e-05 -3.29525e-06)
(0.000583561 -4.44523e-05 -2.24391e-06)
(0.000998163 -2.00227e-05 1.42822e-06)
(0.00102703 -8.93642e-05 3.40616e-06)
(0.000552024 -2.90317e-05 -4.59688e-06)
(0.000970943 -2.67642e-05 -1.34982e-06)
(0.00092494 -4.53354e-05 -5.42156e-06)
(0.000820317 -1.12767e-05 2.20346e-09)
(0.000850995 -4.47126e-06 -4.65764e-07)
(0.00110832 -1.66459e-05 1.37403e-07)
(0.000821852 -7.46837e-06 1.93069e-08)
(0.000813841 -1.02642e-05 -2.69962e-07)
(0.00109196 -1.21417e-05 1.46069e-07)
(0.000821813 -4.39097e-06 7.92289e-08)
(0.000823749 -6.13746e-06 1.44e-07)
(0.00109649 -6.90098e-06 1.82635e-07)
(0.000821952 -2.67195e-06 2.5294e-08)
(0.000822347 -4.19725e-06 4.80973e-08)
(0.00109553 -4.25565e-06 1.92123e-07)
(0.000821515 -1.63162e-06 4.17703e-08)
(0.000822462 -2.63051e-06 2.75652e-08)
(0.00109565 -2.5466e-06 1.77989e-07)
(0.000820868 -1.02368e-06 7.05134e-08)
(0.000821663 -1.68183e-06 7.1738e-08)
(0.00109479 -1.59728e-06 1.79589e-07)
(0.000819858 -5.88015e-07 4.43618e-08)
(0.000820706 -1.08243e-06 5.16504e-08)
(0.00109361 -9.81203e-07 1.81777e-07)
(0.000818524 -3.74437e-07 4.4604e-08)
(0.000819383 -7.72194e-08 3.86251e-08)
(0.00109203 -4.95771e-07 1.58084e-07)
(0.000817145 -2.73554e-07 7.7764e-08)
(0.00081793 -2.83796e-07 5.10994e-08)
(0.00109018 -4.49866e-07 1.774e-07)
(0.000815886 -1.98144e-07 2.97934e-08)
(0.000816544 -4.1568e-07 8.84795e-08)
(0.00108846 -2.53174e-07 2.00813e-07)
(0.000813976 -1.55998e-07 6.75117e-08)
(0.00081502 2.79942e-06 6.63583e-08)
(0.00108626 -2.41597e-07 -4.3434e-09)
(0.000812576 -8.8365e-08 1.20472e-07)
(0.000813491 -2.14962e-07 1.03793e-07)
(0.00108405 -1.65598e-07 1.75102e-07)
(0.000811119 9.1386e-09 6.44308e-08)
(0.000811981 1.22673e-07 7.15241e-08)
(0.00108225 -9.04296e-08 1.3728e-07)
(0.000809789 1.464e-08 6.25613e-08)
(0.000810393 -3.94678e-07 6.1511e-08)
(0.00108029 1.28322e-07 1.7748e-07)
(0.00080831 -7.71733e-08 5.09822e-08)
(0.000808869 -2.44172e-07 3.75412e-08)
(0.00107838 -6.96188e-08 1.87093e-07)
(0.000806705 -8.97409e-08 4.67644e-08)
(0.000807455 -5.33515e-08 3.93296e-08)
(0.00107636 -1.17517e-07 1.78514e-07)
(0.000805226 -6.17349e-08 6.07743e-08)
(0.000805983 9.01331e-08 5.42512e-08)
(0.00107431 -7.32995e-08 1.793e-07)
(0.000803786 -1.05541e-08 6.23426e-08)
(0.000804478 1.14626e-07 6.04473e-08)
(0.00107235 -1.81583e-08 1.78799e-07)
(0.000802191 2.84131e-08 5.1161e-08)
(0.000802969 7.51067e-08 4.52212e-08)
(0.0010703 5.21885e-08 1.74172e-07)
(0.00080078 1.47862e-07 6.40104e-08)
(0.00080156 -1.21838e-07 4.81398e-08)
(0.00106844 4.99368e-08 1.78896e-07)
(0.00079876 4.82527e-08 1.24228e-07)
(0.000799748 -5.92008e-07 3.94803e-08)
(0.00106606 3.48706e-07 2.99033e-07)
(0.000797373 -4.09269e-07 5.44672e-08)
(0.00079783 1.42032e-07 1.26085e-07)
(0.00106367 -2.47477e-07 1.36341e-07)
(0.000795922 -5.75484e-07 -3.82071e-08)
(0.000796592 2.04135e-06 3.77404e-08)
(0.00106192 -8.88553e-07 -2.87154e-08)
(0.000794081 -3.65443e-07 4.88321e-08)
(0.000795268 1.19073e-06 1.31833e-08)
(0.00105956 -6.8043e-07 8.9965e-08)
(0.000793308 -1.64435e-07 6.56469e-08)
(0.000793859 -8.01733e-07 1.464e-07)
(0.00105784 -3.29812e-07 2.22025e-07)
(0.000791982 9.4676e-10 3.13492e-08)
(0.000792634 3.57035e-07 1.27173e-07)
(0.00105661 -1.17598e-07 1.09262e-07)
(0.000790433 1.50942e-07 4.8424e-08)
(0.000791168 9.41135e-08 4.72168e-08)
(0.00105468 1.55797e-07 1.76045e-07)
(0.00078881 2.09497e-07 4.01071e-08)
(0.000789542 -5.5168e-08 4.41911e-08)
(0.00105249 3.00796e-07 1.29573e-07)
(0.000786778 2.04987e-07 1.78241e-08)
(0.000787923 -3.10157e-08 3.83544e-08)
(0.00104998 2.83942e-07 1.69159e-07)
(0.000785534 3.03434e-07 -1.12381e-08)
(0.000786392 1.03717e-07 3.23905e-08)
(0.00104772 2.83162e-07 1.65785e-07)
(0.000783989 4.48861e-07 2.61628e-08)
(0.000784946 2.93908e-07 -5.57516e-09)
(0.00104598 5.88257e-07 1.88582e-07)
(0.000783219 2.94002e-07 5.76096e-08)
(0.000783535 -1.10179e-06 3.95088e-08)
(0.00104456 6.40323e-07 1.96156e-07)
(0.000781655 3.544e-08 4.43382e-08)
(0.000782122 1.84961e-07 4.68884e-08)
(0.00104288 1.37249e-07 1.75535e-07)
(0.000780319 -2.22121e-07 4.23482e-08)
(0.00078064 -4.36e-08 6.39145e-08)
(0.00104082 -3.60732e-08 1.71518e-07)
(0.000778574 -3.40424e-07 1.30872e-07)
(0.000779315 1.73107e-06 4.48435e-08)
(0.00103902 -5.56694e-07 6.49505e-08)
(0.000777323 -1.85499e-07 1.37472e-07)
(0.000778029 -4.33715e-07 1.60725e-07)
(0.0010369 -3.51298e-07 1.62595e-07)
(0.000775628 -1.16336e-07 5.295e-08)
(0.000776522 2.98301e-08 5.09795e-08)
(0.00103485 -1.59019e-07 1.74971e-07)
(0.000774346 -1.43044e-07 6.04019e-08)
(0.000774996 6.9952e-08 5.7813e-08)
(0.00103294 -1.99595e-07 1.64131e-07)
(0.000772953 -2.97628e-07 9.40704e-08)
(0.000773604 -3.0101e-08 6.40189e-08)
(0.00103108 -2.27056e-07 1.70374e-07)
(0.000771486 -3.8637e-07 6.16223e-08)
(0.000772222 -1.30685e-07 9.23441e-08)
(0.00102933 -5.64028e-07 1.62817e-07)
(0.000769778 -2.81634e-07 2.92449e-08)
(0.000770621 9.51147e-07 3.40861e-08)
(0.00102711 -4.49769e-07 1.07423e-07)
(0.000769262 -4.99904e-07 4.67374e-08)
(0.00102477 -3.16192e-07 2.67206e-07)
(0.0022804 0.000635097 5.68011e-05)
(-0.00117652 -0.00203511 0.000186284)
(0.00110036 -0.00223038 0.000164116)
(-0.00104165 -0.0033293 4.39511e-05)
(-0.00106813 -0.00274764 0.000285446)
(-0.00104302 -0.00212313 -4.5046e-05)
(0.000975447 -0.0044733 8.42363e-05)
(0.000413772 0.00263221 -2.62971e-05)
(0.00386952 0.00179154 0.000101068)
(0.000629106 -0.00504532 -8.89162e-05)
(0.00067014 -0.00727572 -7.18243e-05)
(0.000912768 -0.00790907 0.000121701)
(-0.00158766 -0.0007817 -6.53635e-05)
(0.00541762 0.00586086 8.3807e-05)
(0.00509392 0.00122615 -0.000222154)
(0.00829884 0.000190231 -4.44202e-05)
(-0.000380378 0.00058643 -0.000358549)
(0.00888158 0.00971731 -0.000538597)
(-0.0103254 -0.0041244 0.000225578)
(0.00358046 0.00180239 0.000500208)
(-0.0148051 -0.00326483 0.00111235)
(-0.000315255 -0.000887598 4.72905e-05)
(-0.000503412 0.0044911 -1.61744e-05)
(0.00632138 -0.000163005 2.39614e-05)
(-0.00191862 -9.35157e-06 -0.000139876)
(-0.00158794 -0.00136401 3.33671e-06)
(-0.000913188 0.00242362 -2.2197e-05)
(-0.000641989 -0.000804115 -5.2046e-05)
(-0.000721656 -0.00149553 3.97353e-05)
(-0.00141842 -0.00119022 -1.40134e-05)
(0.000862313 0.000253499 5.4146e-05)
(0.00126368 0.000190367 -8.1109e-06)
(0.00164198 0.00087074 4.87214e-05)
(0.00137834 0.000269287 -8.63818e-05)
(0.00134248 0.000100513 1.25522e-05)
(0.00031307 -2.83594e-05 -2.69559e-06)
(0.00046992 -1.79464e-05 -3.37868e-06)
(0.000449804 -2.45692e-05 -5.07452e-07)
(0.000748177 -2.64353e-05 -1.26837e-06)
(0.000317555 -9.31343e-06 -2.36228e-06)
(0.000573151 -6.32089e-05 -3.74843e-06)
(0.000585666 -1.39452e-05 -1.20958e-06)
(0.000817618 -1.11071e-05 -7.37994e-07)
(0.000877046 -2.66226e-05 -1.57363e-06)
(0.00116202 -1.17143e-05 -9.54609e-07)
(0.000587744 -1.5751e-05 -3.87457e-06)
(0.000600789 -1.57011e-05 -4.67566e-06)
(0.000966376 -3.04371e-05 -4.69943e-06)
(0.000996789 -2.95962e-05 -5.93296e-06)
(0.000822051 -1.00431e-05 -1.45404e-07)
(0.000815221 -1.62045e-05 -4.48363e-07)
(0.00107846 -1.58693e-05 6.97802e-08)
(0.000823274 -6.34825e-06 1.129e-07)
(0.000828398 -1.00601e-05 1.69144e-07)
(0.00109993 -9.63416e-06 2.09049e-07)
(0.000823275 -4.19836e-06 5.03751e-08)
(0.000825054 -6.16923e-06 3.57318e-08)
(0.00109702 -6.51592e-06 1.7994e-07)
(0.000822583 -2.69074e-06 5.75185e-08)
(0.00082436 -3.84499e-06 5.80963e-08)
(0.00109717 -4.18712e-06 1.87888e-07)
(0.000821575 -1.72189e-06 5.28815e-08)
(0.000822883 -2.42806e-06 5.19334e-08)
(0.00109585 -2.69766e-06 1.83202e-07)
(0.000820356 -1.16116e-06 4.59179e-08)
(0.000821413 -1.54291e-06 5.30509e-08)
(0.00109442 -1.73509e-06 1.81665e-07)
(0.000818743 -7.19941e-07 4.51164e-08)
(0.000819939 -3.36225e-07 4.88929e-08)
(0.00109246 -1.26706e-06 2.01987e-07)
(0.000817334 -3.39705e-07 6.18028e-08)
(0.000818408 -4.77504e-07 9.36686e-09)
(0.00109044 -6.08832e-07 1.79999e-07)
(0.000815658 -1.36814e-07 1.25052e-07)
(0.000816799 1.47709e-07 5.7559e-08)
(0.00108846 -3.14692e-07 1.50947e-07)
(0.000814608 -1.73295e-08 1.02627e-07)
(0.00081517 -4.18176e-07 1.44874e-07)
(0.00108652 -9.67327e-08 3.58303e-07)
(0.000812876 1.08214e-07 5.48551e-08)
(0.000813648 -8.26772e-08 3.68442e-08)
(0.00108463 1.65799e-08 1.85909e-07)
(0.000811212 1.86822e-07 6.86075e-08)
(0.000812079 2.57263e-07 5.93772e-08)
(0.00108245 2.4383e-07 1.79976e-07)
(0.000809513 2.08873e-07 3.64985e-08)
(0.00081042 -8.35284e-08 5.17295e-08)
(0.00108013 2.22131e-07 1.70963e-07)
(0.000807986 2.14107e-07 2.58881e-08)
(0.000808875 1.12593e-07 8.24787e-08)
(0.00107796 3.47595e-07 1.53061e-07)
(0.000806721 9.64064e-08 4.68117e-08)
(0.000807307 -9.18278e-07 -2.2754e-08)
(0.00107626 2.79982e-07 2.15561e-07)
(0.000805223 -5.32407e-08 5.39222e-08)
(0.000805795 7.24495e-08 5.47983e-08)
(0.00107437 3.51755e-08 1.76993e-07)
(0.000803713 -1.4701e-07 4.33307e-08)
(0.000804361 1.19166e-07 4.17402e-08)
(0.00107226 -1.2181e-07 1.76678e-07)
(0.00080228 -2.19452e-07 4.21991e-08)
(0.000802879 1.05176e-07 2.80674e-08)
(0.00107029 -2.21466e-07 1.68191e-07)
(0.000800701 -4.43512e-07 2.36125e-08)
(0.000801282 1.32213e-08 5.32768e-08)
(0.00106842 -3.4359e-07 1.73937e-07)
(0.000798698 -5.6454e-07 4.13101e-08)
(0.000799599 1.52866e-06 -4.37138e-09)
(0.00106595 -8.97854e-07 7.15296e-08)
(0.000796881 -4.77961e-07 1.09386e-07)
(0.000797941 4.37194e-07 8.34017e-08)
(0.0010632 -6.82434e-07 1.83846e-07)
(0.000796086 -3.52893e-07 8.91386e-08)
(0.00079675 -1.23662e-07 1.16563e-07)
(0.00106165 -6.11694e-07 2.67767e-07)
(0.000794988 8.90693e-08 1.1071e-07)
(0.000795821 -1.31657e-07 5.14107e-08)
(0.00106045 -3.3195e-07 2.3528e-07)
(0.000793192 4.6976e-07 2.07932e-07)
(0.000794333 3.82009e-07 2.22604e-07)
(0.00105843 5.90545e-07 1.1948e-07)
(0.000791873 3.51996e-07 1.43065e-07)
(0.000792485 6.7126e-07 1.78839e-07)
(0.00105643 7.06842e-07 1.39005e-07)
(0.00079022 1.25689e-07 4.29849e-08)
(0.000790884 3.14505e-07 6.98229e-08)
(0.00105445 2.56688e-07 1.75607e-07)
(0.000788749 4.88061e-08 4.24402e-08)
(0.000789446 -4.50302e-09 4.4864e-08)
(0.00105224 8.26974e-08 1.71588e-07)
(0.00078744 1.07249e-07 5.29227e-08)
(0.000787995 -2.08753e-07 5.2236e-08)
(0.00105041 7.01315e-08 1.73661e-07)
(0.000785842 2.67588e-07 3.80652e-08)
(0.000786591 1.38818e-07 5.26867e-08)
(0.00104859 2.73158e-07 1.8436e-07)
(0.000784423 4.29377e-07 7.75689e-09)
(0.000785147 3.93684e-07 3.31324e-08)
(0.00104648 5.35101e-07 1.6383e-07)
(0.000782467 3.73567e-07 2.87854e-08)
(0.000783463 -3.44661e-07 4.52043e-08)
(0.00104414 6.85348e-07 1.64986e-07)
(0.000781124 1.36641e-07 6.64595e-08)
(0.000781824 -6.82086e-09 7.42562e-08)
(0.00104199 3.18818e-07 1.7836e-07)
(0.000779635 -1.35117e-07 6.64157e-08)
(0.000780301 8.75273e-09 6.08645e-08)
(0.00104007 3.71025e-08 1.73882e-07)
(0.000778669 -3.63275e-07 7.4661e-08)
(0.000779031 -3.33533e-07 1.21675e-07)
(0.00103841 -3.68375e-07 2.80048e-07)
(0.000777412 -3.49949e-07 7.42663e-08)
(0.000778048 -2.50328e-07 1.22868e-07)
(0.00103708 -5.81494e-07 1.43848e-07)
(0.000775762 -2.25297e-07 5.58405e-08)
(0.00077668 2.15462e-08 5.05054e-08)
(0.00103508 -3.5426e-07 1.93424e-07)
(0.000774301 -1.1275e-07 6.14282e-08)
(0.000775137 -1.22521e-07 5.20185e-08)
(0.00103294 -2.53301e-07 1.89931e-07)
(0.000772841 -1.17964e-07 6.2284e-08)
(0.000773598 -8.99224e-08 7.68914e-08)
(0.00103108 -3.34462e-08 1.80308e-07)
(0.000771442 -2.58583e-07 6.48256e-08)
(0.000772047 -3.25834e-07 6.58565e-08)
(0.00102917 -2.32326e-07 1.84726e-07)
(0.000769913 -2.85694e-07 5.15748e-08)
(0.00077059 2.28464e-07 6.82254e-08)
(0.00102709 -4.26608e-07 2.3546e-07)
(0.000769618 1.13379e-07 4.82105e-08)
(0.00102577 -3.26095e-07 7.86511e-08)
(-0.00264026 -0.00360011 0.000184574)
(-0.00250835 -0.00286183 0.00041923)
(-0.00221096 -0.00336019 0.000313363)
(-0.000121997 -0.000741472 -0.000182343)
(0.00258737 0.00742005 0.000465251)
(-0.00225056 0.00526701 -0.000370371)
(0.0011005 0.00503336 -4.80109e-05)
(0.00355017 0.00726848 0.000358409)
(0.000869834 0.00549759 0.000521013)
(-0.00117068 -0.00100854 -1.14259e-05)
(-0.00184954 -0.000745682 -1.98328e-05)
(-0.00161832 -0.000616937 -0.000100443)
(-0.00181172 -0.000973018 -0.000299904)
(0.00543108 0.00250487 9.51684e-05)
(-0.00385424 -0.00293527 -3.74558e-05)
(0.00274795 -0.0049759 -0.000311418)
(-0.00355613 0.00191902 0.000240437)
(0.00251857 0.000996526 0.000511477)
(-0.00327709 0.00402915 0.000584354)
(0.00354807 -0.00223623 -0.000641125)
(-0.00662053 -0.00737642 0.000143721)
(0.00199969 5.56523e-05 -0.00155886)
(-0.00281626 -0.000369533 0.000330574)
(-0.0011819 0.00688438 0.000340932)
(0.00565916 0.00599082 0.000623322)
(0.00363901 0.000595346 -3.4912e-05)
(-0.00878116 -0.00416687 0.000100137)
(-6.61744e-05 0.000391017 -0.000111773)
(-0.00114255 -0.00794313 -0.000376709)
(-0.00669797 -0.00549721 -0.000158314)
(-0.00166676 -0.000753725 -8.53807e-05)
(0.000459867 -0.00303997 1.93296e-05)
(0.00158311 0.00048762 -2.28895e-05)
(0.000472957 0.000954994 8.61854e-05)
(0.000714573 -0.000424803 -0.000209627)
(0.000972058 -0.000107765 1.74622e-05)
(0.00108681 -5.30737e-07 8.5872e-05)
(0.00075289 -0.000570321 2.20429e-05)
(0.00114798 -0.000141971 4.24909e-05)
(0.000924443 0.000328154 6.01777e-05)
(0.000367756 -3.4945e-05 5.55208e-06)
(0.000483997 -2.63422e-05 -2.71769e-06)
(0.000782085 -6.28114e-05 3.43096e-06)
(0.000339054 -8.31129e-05 2.01954e-05)
(0.00068878 -5.54501e-05 1.68486e-05)
(0.000618652 -8.80491e-05 5.14489e-05)
(0.000461093 -2.66094e-05 1.25246e-07)
(0.000376888 -3.51726e-05 2.86836e-06)
(0.000679261 -6.76249e-05 1.00424e-05)
(0.00056837 -6.87715e-05 -1.54251e-06)
(0.000312214 -3.865e-05 -1.76642e-06)
(0.000831958 -2.56445e-05 -1.28436e-06)
(0.000892599 -3.34704e-05 -2.01125e-06)
(0.0011761 -4.38912e-05 -1.15624e-06)
(0.000601743 -1.9835e-05 -4.2299e-06)
(0.000618138 -1.62528e-05 -4.93729e-06)
(0.000988221 -2.84194e-05 -5.16522e-06)
(0.00104048 -2.06524e-05 -5.78385e-06)
(0.000830732 -1.40474e-05 -1.34017e-07)
(0.000829926 -1.52195e-05 -3.99323e-07)
(0.00109469 -2.24468e-05 8.10281e-08)
(0.000828539 -8.4838e-06 9.20188e-08)
(0.000835397 -9.63622e-06 1.30878e-07)
(0.00110826 -1.38673e-05 2.04008e-07)
(0.000826518 -5.07502e-06 4.34456e-08)
(0.000829343 -5.60005e-06 -6.64283e-08)
(0.00110239 -8.0892e-06 1.78845e-07)
(0.000824597 -3.15423e-06 5.25132e-08)
(0.000826778 -3.46387e-06 5.22269e-08)
(0.00110046 -5.05401e-06 1.83844e-07)
(0.000822749 -1.96508e-06 5.21024e-08)
(0.00082438 -2.112e-06 5.03781e-08)
(0.00109788 -3.12825e-06 1.82261e-07)
(0.000820946 -1.29037e-06 5.60273e-08)
(0.000822263 -1.28854e-06 5.15526e-08)
(0.00109541 -1.98504e-06 1.82774e-07)
(0.00081966 -8.803e-07 1.31562e-08)
(0.000820456 -7.55967e-07 5.47122e-08)
(0.00109344 -1.39309e-06 1.8486e-07)
(0.000817887 -5.81476e-07 5.1075e-09)
(0.000818785 -1.48416e-07 1.81515e-08)
(0.00109137 -9.3297e-07 1.75377e-07)
(0.000816265 -3.80936e-07 7.73538e-08)
(0.000817052 -7.03383e-07 5.0331e-08)
(0.0010891 -6.32517e-07 2.43873e-07)
(0.000814182 -2.61115e-07 7.91259e-08)
(0.000815322 2.2427e-07 7.52485e-08)
(0.00108668 -4.69884e-07 1.80791e-07)
(0.000812943 -2.58432e-07 4.13591e-08)
(0.000813653 -5.12392e-07 3.75382e-08)
(0.00108448 -3.21267e-07 1.82145e-07)
(0.000811222 -1.98683e-07 4.25016e-08)
(0.000812155 3.41711e-07 5.78816e-08)
(0.0010825 -3.89072e-07 1.88451e-07)
(0.000809766 1.96119e-08 9.76999e-08)
(0.000810693 -2.10765e-07 5.00357e-08)
(0.00108042 -1.26756e-07 1.80321e-07)
(0.000808228 1.80136e-07 3.38702e-08)
(0.000809075 -7.98305e-08 8.63853e-08)
(0.00107845 2.18201e-07 1.92326e-07)
(0.0008063 1.883e-07 -1.47921e-08)
(0.000807316 -4.14353e-08 -9.76485e-09)
(0.00107597 3.16998e-07 1.51798e-07)
(0.000804946 1.32709e-07 4.26204e-08)
(0.000805725 -1.07602e-07 3.89843e-08)
(0.00107381 2.00122e-07 1.75762e-07)
(0.000803548 5.58592e-08 2.64812e-08)
(0.000804265 -6.92827e-08 3.31738e-08)
(0.00107203 1.48963e-07 1.80359e-07)
(0.000801927 -3.33679e-08 3.91372e-08)
(0.000802767 1.68862e-07 4.21328e-08)
(0.00107002 2.15647e-08 1.82327e-07)
(0.000800231 -1.61453e-07 2.53112e-08)
(0.000801122 -9.52633e-08 7.34553e-08)
(0.0010676 -7.14003e-08 2.01346e-07)
(0.000798779 4.7558e-09 3.76925e-08)
(0.000799806 -5.04781e-07 3.14261e-08)
(0.00106564 -3.20008e-07 3.15664e-07)
(0.000797568 4.82029e-07 9.05683e-08)
(0.000798536 -9.62958e-07 7.92469e-08)
(0.00106404 3.82708e-07 2.50118e-07)
(0.000796607 6.59354e-07 7.88559e-08)
(0.000796969 -1.28803e-06 6.62826e-08)
(0.00106236 9.43262e-07 2.1162e-07)
(0.000795344 4.38983e-07 1.63251e-07)
(0.000795543 -1.8165e-06 3.96835e-09)
(0.00106107 8.28989e-07 2.75663e-07)
(0.000793602 2.70433e-07 1.93524e-07)
(0.000794121 3.25363e-07 1.56749e-07)
(0.00105913 3.66383e-07 2.02821e-07)
(0.000791394 1.83635e-07 1.05631e-07)
(0.000792376 1.04758e-07 8.64186e-08)
(0.00105619 3.78307e-07 2.80687e-07)
(0.000790105 1.08153e-07 7.17099e-08)
(0.000790789 9.10152e-08 7.41556e-08)
(0.0010539 1.10065e-07 1.74749e-07)
(0.000788717 1.35245e-07 5.46575e-08)
(0.000789479 -1.38435e-07 5.11793e-08)
(0.00105226 1.50665e-07 1.7736e-07)
(0.000787122 1.07567e-07 5.19998e-08)
(0.00078796 -2.52569e-08 4.84078e-08)
(0.00105021 1.83546e-07 1.73337e-07)
(0.00078585 1.02977e-07 4.77599e-08)
(0.000786585 -8.19289e-08 4.13054e-08)
(0.0010483 9.10785e-08 1.73566e-07)
(0.000784336 3.33793e-08 7.05761e-08)
(0.00078506 5.26608e-07 1.83273e-08)
(0.00104649 1.43854e-07 1.69984e-07)
(0.000782727 -6.13126e-08 9.06662e-08)
(0.000783345 8.87319e-07 3.31896e-08)
(0.00104428 -9.61666e-08 9.96116e-08)
(0.000781049 4.80407e-09 6.86653e-08)
(0.000781907 -2.89777e-07 7.67502e-09)
(0.00104207 -7.76835e-08 2.15101e-07)
(0.000779511 2.35281e-07 1.16106e-07)
(0.000780588 1.09179e-07 5.29477e-08)
(0.00103996 1.04963e-07 1.74838e-07)
(0.000778431 3.0694e-07 1.69883e-07)
(0.000779119 6.32981e-07 1.39581e-07)
(0.00103825 5.66181e-07 7.10745e-08)
(0.000777477 1.56812e-07 9.91296e-08)
(0.000777858 -1.34023e-06 2.91023e-08)
(0.00103692 3.30477e-07 2.08651e-07)
(0.000776033 1.15466e-07 4.6683e-08)
(0.000776626 -1.21147e-08 3.8962e-08)
(0.00103527 2.13865e-07 1.7665e-07)
(0.000774413 1.77187e-07 6.74741e-08)
(0.000775213 -6.78085e-08 4.6523e-08)
(0.00103335 2.26854e-07 1.86353e-07)
(0.000772762 1.71856e-07 8.04673e-08)
(0.00077359 3.0951e-07 8.24165e-08)
(0.00103111 3.47606e-07 1.64296e-07)
(0.000771215 1.02271e-07 6.92556e-08)
(0.000771959 -4.14675e-08 5.45148e-08)
(0.00102884 1.97078e-07 1.63215e-07)
(0.000770077 8.74856e-08 6.48672e-08)
(0.00077057 -2.12442e-07 5.22527e-08)
(0.001027 1.30014e-07 1.79054e-07)
(0.000769509 1.37109e-07 6.12246e-08)
(0.00102571 1.1824e-07 1.60914e-07)
(-0.0117295 0.00024253 0.00185496)
(-0.0296385 -0.0312493 0.000621162)
(-0.0200812 -0.0446047 0.000937774)
(-0.00840693 -0.0239941 0.00548034)
(0.00685314 -0.0020779 0.000274222)
(0.00152095 0.00393543 0.000414673)
(0.0150296 -0.000881963 0.000813172)
(0.00549863 0.00228407 0.00100032)
(-0.00354878 -0.000747986 -0.000410541)
(0.000513821 -0.00196117 -4.67492e-07)
(-0.00882922 -0.00461222 0.000213031)
(-0.000215079 0.0010109 2.70686e-05)
(-0.000826521 0.00769714 0.000335696)
(0.0056439 0.00647784 4.60681e-05)
(1.3744e-05 0.00800364 0.000191288)
(0.0074267 0.0100791 0.000339956)
(0.0099438 0.00549619 -0.000325725)
(0.00905077 0.0112294 0.000450855)
(-0.000626258 0.00973303 0.000725429)
(-0.0227852 0.00594633 0.00061446)
(0.000697786 0.00811612 0.00076674)
(-0.0100368 0.00545624 0.00207076)
(0.0089752 -0.00601031 -2.88523e-05)
(0.021724 -0.000185147 0.000131128)
(0.0115371 -0.000108056 0.00012202)
(0.0199472 -0.000835772 0.000401275)
(0.0173805 0.000494851 0.000508997)
(0.00216967 0.000624824 -8.02948e-05)
(0.00149445 0.000440562 -6.10874e-06)
(0.00200404 0.000548034 -2.05449e-05)
(0.00257731 -4.7345e-05 2.45939e-05)
(0.00145843 0.000852085 -2.23195e-05)
(0.00181291 0.000999255 -0.000151442)
(0.00111747 0.00199617 -2.47755e-05)
(0.00152114 0.000507682 -3.3459e-05)
(0.00162173 0.000518032 5.59958e-07)
(0.00205617 0.000591655 -4.75354e-05)
(0.00146203 0.000820589 -1.80857e-05)
(0.00113655 0.000264226 0.000116366)
(0.00139394 0.000501709 2.64356e-05)
(0.00129739 0.000391455 7.6467e-05)
(0.00107931 -0.000103682 1.33143e-05)
(0.000436039 -4.7243e-05 2.27128e-05)
(0.000504818 -0.00011978 4.33803e-05)
(0.000642214 -9.4079e-05 7.04663e-05)
(0.000303426 -4.97266e-05 1.74885e-05)
(0.000852946 -1.76516e-05 -1.12673e-06)
(0.000871134 -1.5584e-05 -2.39324e-06)
(0.00120151 -3.52313e-05 -1.35128e-06)
(0.000620839 -2.74611e-05 -4.37942e-06)
(0.000648983 4.72504e-06 -5.18792e-06)
(0.001034 -5.06759e-05 -4.41785e-06)
(0.00109867 2.29519e-05 -4.8426e-06)
(0.000841351 -7.66687e-06 -1.34601e-07)
(0.000842316 -1.19717e-06 -1.11023e-07)
(0.00111658 -1.1197e-05 7.65171e-08)
(0.000834467 -5.41675e-06 -2.75043e-08)
(0.000838237 -3.22385e-06 7.42572e-08)
(0.00111799 -8.93612e-06 1.9545e-07)
(0.000829595 -3.34228e-06 -5.76857e-08)
(0.000831955 -1.41408e-06 -3.67247e-08)
(0.00110811 -5.32244e-06 1.7542e-07)
(0.000826406 -2.11361e-06 5.00924e-08)
(0.000828325 -1.46787e-06 7.19893e-08)
(0.00110342 -3.49048e-06 1.81743e-07)
(0.000823857 -1.2283e-06 4.98279e-08)
(0.000825494 -9.22114e-07 5.11337e-08)
(0.00109972 -2.09509e-06 1.82493e-07)
(0.000821629 -6.4825e-07 5.02365e-08)
(0.000822992 -4.88835e-07 4.05551e-08)
(0.00109661 -1.15359e-06 1.81817e-07)
(0.000819625 -4.65875e-07 5.97193e-08)
(0.000820686 -2.34848e-07 3.72716e-08)
(0.00109379 -5.67713e-07 1.81962e-07)
(0.00081793 -4.6154e-07 6.33645e-08)
(0.000818792 -2.35435e-07 5.97305e-08)
(0.0010914 -6.61854e-07 1.97312e-07)
(0.00081619 -4.40407e-07 4.82177e-08)
(0.00081708 4.08999e-08 5.53759e-08)
(0.00108905 -5.27821e-07 1.43909e-07)
(0.000814677 -4.17393e-07 3.3673e-08)
(0.000815352 2.41928e-09 5.27256e-08)
(0.00108692 -5.99561e-07 1.91294e-07)
(0.000812822 -3.51365e-07 5.40542e-08)
(0.000813737 -1.28835e-07 4.70816e-08)
(0.00108473 -5.01749e-07 1.79172e-07)
(0.000811664 -2.92057e-07 6.54182e-08)
(0.00081223 -1.85671e-08 7.34004e-08)
(0.0010827 -4.39711e-07 1.70405e-07)
(0.000810005 -2.5834e-07 3.87095e-08)
(0.000810736 -7.58418e-08 7.40324e-08)
(0.00108089 -3.4057e-07 1.79815e-07)
(0.000808182 -2.18739e-07 4.27809e-08)
(0.000809125 8.45692e-07 3.67324e-08)
(0.00107851 -3.82033e-07 1.39199e-07)
(0.000806701 -4.7337e-08 4.39961e-08)
(0.000807531 -1.95012e-08 7.75096e-08)
(0.00107624 -2.39964e-07 1.7249e-07)
(0.000805015 1.48914e-07 2.95396e-08)
(0.00080597 3.49472e-08 4.72471e-08)
(0.00107416 8.45676e-08 1.82225e-07)
(0.000803489 2.47771e-07 4.88225e-08)
(0.000804387 -1.97743e-08 4.85838e-08)
(0.00107204 2.80699e-07 1.74929e-07)
(0.000802025 3.09571e-07 7.6441e-08)
(0.000802843 -7.34606e-09 6.82576e-08)
(0.00107001 3.75181e-07 1.85473e-07)
(0.000800578 5.66091e-07 7.95835e-08)
(0.00080144 -5.25342e-07 4.60263e-08)
(0.001068 4.99869e-07 2.02062e-07)
(0.000799627 6.88054e-07 7.29654e-08)
(0.000799955 -2.78448e-06 3.05305e-08)
(0.00106652 1.12513e-06 2.88932e-07)
(0.000797911 6.78794e-07 5.49653e-08)
(0.000798521 3.44903e-07 5.55429e-08)
(0.00106477 8.29077e-07 1.03523e-07)
(0.000795942 7.28977e-07 -8.58541e-09)
(0.000797028 -2.68342e-07 4.41001e-08)
(0.0010622 1.04558e-06 1.46252e-07)
(0.000794268 4.30743e-07 -2.58188e-09)
(0.000795167 1.9973e-07 -7.07434e-09)
(0.00105972 9.56887e-07 4.96799e-08)
(0.000793053 3.79016e-08 4.9665e-08)
(0.000793628 -6.4279e-08 5.89878e-08)
(0.00105786 2.46193e-07 1.7966e-07)
(0.000791565 1.31719e-10 5.49474e-08)
(0.000792328 1.03723e-07 5.17105e-08)
(0.00105611 -1.18838e-07 1.76462e-07)
(0.000790252 5.64672e-08 5.36323e-08)
(0.000790859 -3.24789e-09 6.35994e-08)
(0.00105416 1.35253e-07 1.67694e-07)
(0.000788716 -2.6206e-08 4.49306e-08)
(0.000789376 -6.36626e-08 4.7714e-08)
(0.00105233 1.94179e-08 1.75625e-07)
(0.000787325 -8.59374e-08 3.77155e-08)
(0.000787886 -2.1413e-07 4.76481e-08)
(0.00105033 -8.64354e-08 1.81783e-07)
(0.000785952 -2.52917e-07 1.18799e-08)
(0.000786377 5.53146e-09 5.03172e-08)
(0.00104854 -1.51781e-07 1.60553e-07)
(0.000784011 -3.449e-07 -1.90638e-08)
(0.000784946 2.55287e-06 5.51825e-08)
(0.00104625 -5.46647e-07 7.23341e-08)
(0.000782476 -1.82675e-07 -4.97937e-08)
(0.000783549 -5.08191e-07 1.22801e-08)
(0.00104386 -4.21715e-07 2.81979e-07)
(0.000781454 2.08264e-08 -8.05644e-09)
(0.000782162 -1.29162e-07 -3.28676e-09)
(0.00104225 -1.08732e-07 1.23933e-07)
(0.000780263 2.1683e-07 7.63964e-08)
(0.000780832 -1.37284e-07 1.84495e-07)
(0.00104087 1.70575e-07 1.68708e-07)
(0.000778338 3.95743e-07 -1.16542e-09)
(0.000779342 2.56339e-07 7.04901e-08)
(0.00103869 4.21183e-07 2.44651e-07)
(0.00077714 2.78248e-07 -3.10683e-08)
(0.00077771 -9.27113e-07 -2.90066e-08)
(0.00103664 6.09848e-07 1.2178e-07)
(0.000775833 4.24969e-08 3.87998e-08)
(0.000776331 1.9861e-07 3.84762e-08)
(0.00103494 1.09016e-07 1.46437e-07)
(0.00077448 -1.52262e-08 6.14545e-08)
(0.000775141 8.98063e-08 4.49851e-08)
(0.0010331 1.24306e-08 1.54664e-07)
(0.000772595 2.61662e-08 5.64726e-08)
(0.000773642 -4.23898e-07 2.14711e-08)
(0.00103104 -5.96401e-08 2.68127e-07)
(0.000771412 1.70227e-07 3.75126e-08)
(0.000772139 -2.79681e-07 -1.21238e-07)
(0.0010289 1.05988e-07 1.68123e-07)
(0.000769822 2.36764e-07 4.86074e-08)
(0.00077065 5.03283e-08 2.53813e-08)
(0.00102698 3.22446e-07 1.68882e-07)
(0.000769214 3.44914e-07 7.05223e-08)
(0.00102546 3.00339e-07 1.29821e-07)
(-0.0534243 0.00149825 0.000805636)
(0.015785 -0.0125955 0.0166189)
(-0.0378706 -0.0330102 -0.00197388)
(0.00230299 0.0360878 0.00533502)
(0.0504379 -0.0508573 -0.00500329)
(-0.0222535 -0.024296 0.00403839)
(8.03322e-05 0.0110095 0.000910771)
(-0.0323517 0.0102869 0.00524475)
(-0.0523829 0.0404655 0.00131808)
(0.0340529 -0.0194145 0.0118385)
(0.0572074 -0.000424685 -0.00308359)
(0.0698794 -0.0245563 -0.00918321)
(0.0325056 -0.0117581 0.0046323)
(-0.0144241 -0.016805 -0.000803064)
(-0.0279882 -0.0113975 0.0076211)
(0.00530472 0.0591046 -0.00789945)
(-0.00993558 0.00602473 -0.00313014)
(0.0297721 -0.00178016 -0.00663512)
(-0.0221215 0.0391879 0.00678021)
(0.0263893 -0.0241053 -0.00368569)
(0.000808598 0.00566894 -0.00130468)
(0.0030438 0.012777 0.000245807)
(-0.0527323 -0.000338735 0.000829746)
(-0.0185563 0.027714 -0.00964602)
(-0.0117858 0.030587 0.00609031)
(0.00543678 0.00594503 -0.00226287)
(-0.0414748 0.0121513 -0.0780375)
(-0.0122587 0.0138764 0.0610883)
(-0.0370738 -0.0102713 -0.0083765)
(-0.0498133 0.00470242 0.0235283)
(-0.00714009 -0.00274631 0.000707656)
(-0.00493235 -0.00193336 0.000537571)
(-0.0227232 -0.00377601 0.0013881)
(0.00611522 -0.000956529 -5.12158e-05)
(0.00120855 0.00225599 0.000410815)
(-0.0185945 -1.3305e-05 -0.000163169)
(-0.0167612 -0.00142506 0.000119062)
(-0.030828 0.0145695 0.00108153)
(-0.0115986 -0.00191665 0.000549396)
(-0.0178276 0.00597275 0.000366436)
(0.00438758 -0.00271778 0.000110727)
(0.00692952 -0.00336255 -4.60282e-05)
(-0.00038624 -0.000271337 -0.000163691)
(0.0188669 -0.00749436 0.000111562)
(0.00468096 -0.0059928 0.000935515)
(0.0135991 0.00372952 0.000397384)
(0.0115253 0.000658274 -3.89171e-05)
(0.0032526 -0.000457567 0.000253523)
(0.00720162 -0.000751679 0.000324283)
(0.00953918 -0.00717164 0.000998218)
(-0.000256644 -0.000394723 7.99139e-06)
(0.000694258 0.000105309 -2.80929e-05)
(0.000595483 -0.000331263 -4.49944e-06)
(-0.000520658 -0.000848921 -3.35166e-05)
(4.58709e-05 -0.000747984 5.89563e-06)
(-0.000993464 -0.00089222 9.26304e-05)
(-6.26668e-05 -0.00141625 -1.93567e-06)
(0.000350017 -0.000560828 -4.23885e-05)
(0.000465165 -0.00024332 -5.87757e-06)
(0.000303736 2.95508e-05 -1.02037e-05)
(0.000598409 -0.000461378 -4.68282e-06)
(0.000975274 4.31213e-05 7.99156e-05)
(0.000695598 -7.09967e-05 3.16185e-05)
(0.000936786 -3.85063e-05 9.06838e-06)
(0.000976156 -0.00011414 -2.29563e-06)
(0.000976514 -4.34208e-05 1.68421e-05)
(0.000847659 1.23367e-07 -1.37828e-06)
(0.000836276 8.99337e-06 -2.89336e-06)
(0.0011181 -4.42863e-06 -1.70798e-06)
(0.000605198 2.27163e-05 -2.14558e-06)
(0.000622793 3.01627e-06 -2.08055e-06)
(0.00105408 5.27305e-05 3.02726e-06)
(0.00110448 5.611e-06 3.18174e-06)
(0.000840937 1.46057e-06 9.77739e-08)
(0.000843875 4.7002e-06 1.8792e-07)
(0.00112727 3.40091e-06 2.16878e-07)
(0.000834619 -1.82441e-07 6.5073e-08)
(0.000836183 2.67331e-06 5.17328e-08)
(0.00111567 -3.18384e-07 1.82112e-07)
(0.000830426 -2.85608e-07 9.29149e-08)