/*--------------------------------*- C++ -*----------------------------------*\
| =========                 |                                                 |
| \\      /  F ield         | OpenFOAM: The Open Source CFD Toolbox           |
|  \\    /   O peration     | Version:  5.0                                   |
|   \\  /    A nd           | Web:      www.OpenFOAM.org                      |
|    \\/     M anipulation  |                                                 |
\*---------------------------------------------------------------------------*/
FoamFile
{
    version     2.0;
    format      ascii;
    class       volScalarField;
    location    "0.2";
    object      alpha.water;
}
// * * * * * * * * * * * * * * * * * * * * * * * * * * * * * * * * * * * * * //

dimensions      [0 0 0 0 0 0 0];

internalField   nonuniform List<scalar> 
4398
(
0.999994
1
1.00005
1.00006
0.999976
0.378978
-1.02999e-18
2.02825e-17
5.76396e-19
2.19058e-22
3.43054e-27
9.13366e-31
3.83524e-34
1.61399e-37
6.80381e-41
2.8854e-44
1.08169e-47
5.0893e-51
2.28416e-54
3.40775e-58
2.99887e-61
7.02549e-65
6.4159e-68
2.63555e-85
2.61208e-74
1.37924e-77
-1.53409e-95
6.6941e-85
9.61225e-90
1.29325e-91
9.80577e-95
5.30228e-97
7.37683e-103
2.78565e-103
3.58789e-129
2.6934e-109
3.56568e-114
5.77061e-132
7.31228e-119
-5.0665e-146
6.37552e-127
5.37832e-129
2.05759e-131
1.88676e-136
1.29726e-145
5.36127e-142
2.10344e-145
1.90963e-146
2.29924e-148
2.08465e-150
1.00001
1.00001
0.999982
0.999941
1.00005
1
0
-5.97649e-30
1.52922e-43
1.822e-24
3.05557e-26
7.26752e-30
7.00649e-49
-3.42114e-52
4.51194e-40
2.93626e-42
9.40215e-47
1.93211e-50
8.79932e-54
3.96303e-57
2.33554e-60
4.22157e-64
1.01659e-67
1.43249e-70
8.43632e-74
1.06729e-77
8.36114e-81
2.34657e-85
2.10265e-86
9.82958e-113
3.44509e-96
3.28515e-97
7.15841e-100
1.28754e-105
9.3456e-107
8.68567e-110
6.84045e-115
5.32432e-116
1.30249e-119
6.97396e-123
5.79306e-126
1.40614e-127
6.0713e-132
1.3358e-145
1.8678e-137
3.22252e-141
1.50131e-144
1.64605e-145
4.41348e-147
7.03602e-149
0.999989
0.999975
0.999993
1
1.00003
1.00003
-1.624e-20
-8.20998e-25
1.31448e-40
4.84879e-21
1.03124e-22
3.12005e-26
1.04114e-30
3.69371e-34
1.5809e-37
6.82769e-41
2.80894e-44
1.19358e-47
5.00111e-51
1.855e-54
8.61718e-58
3.05837e-61
1.87282e-64
2.77971e-68
3.52813e-71
3.92361e-76
3.0784e-78
9.8873e-83
5.18595e-85
1.7692e-89
1.38751e-91
5.54977e-95
5.5994e-97
-1.29798e-122
5.97726e-104
1.78141e-108
5.87873e-112
3.82586e-114
7.33356e-117
4.44322e-120
-4.23904e-146
1.8353e-126
1.31356e-128
1.48646e-133
1.43605e-135
1.62685e-141
4.44921e-142
2.14138e-145
2.79654e-146
5.63566e-148
1.00001
0.999995
0.999998
1.00007
0.999982
0.999392
0.000219357
-2.86872e-20
-9.86076e-35
1.51792e-21
3.07885e-23
8.55755e-27
4.02835e-31
1.52122e-34
6.67947e-38
2.87732e-41
1.29072e-44
5.77432e-48
2.49242e-51
7.48898e-55
3.95987e-58
7.45856e-62
6.44619e-65
2.38459e-68
2.12148e-71
2.42346e-74
5.85368e-79
1.52956e-82
4.71936e-85
2.56061e-87
1.35248e-91
6.01488e-94
7.95115e-100
3.56936e-102
7.455e-104
2.31095e-107
6.61438e-110
1.04291e-112
1.70804e-116
9.40403e-120
4.92053e-124
4.65806e-127
4.46688e-131
5.15488e-133
8.09247e-146
7.34789e-140
1.01808e-145
2.84528e-145
1.6893e-146
3.83659e-148
0.999996
1.00002
0.999998
0.999991
1.00008
1.00047
0.212318
-4.2881e-19
-1.57772e-33
-3.85186e-37
3.96989e-23
7.82567e-25
2.0817e-28
6.7162e-33
2.41133e-36
1.02702e-39
4.34007e-43
1.83533e-46
7.39608e-50
3.37914e-53
1.31278e-56
4.43003e-60
2.32696e-63
1.09867e-66
2.04754e-70
8.03387e-74
9.89652e-77
4.53382e-82
1.14026e-82
6.04951e-86
6.05979e-91
9.3243e-93
6.90478e-96
0
4.32143e-103
4.11478e-107
2.2763e-109
5.85861e-135
2.15457e-115
1.12707e-134
7.94045e-122
4.4631e-125
2.90944e-128
9.48188e-146
1.62213e-135
1.30718e-145
1.58691e-140
9.37437e-144
1.88975e-145
4.73432e-147
1.00002
1.00002
0.999991
0.999943
0.999871
1.00052
0.279164
-3.18579e-18
-1.57772e-33
7.47609e-21
1.86738e-22
7.87836e-26
6.78983e-30
2.67768e-33
1.16145e-36
5.00955e-40
2.14e-43
9.57868e-47
3.11869e-50
1.831e-53
8.76494e-57
7.88839e-61
1.60895e-63
6.16811e-67
5.58691e-72
5.65808e-74
2.46796e-77
7.83183e-80
3.54844e-85
2.93062e-86
1.54143e-90
7.06051e-94
7.02083e-99
2.97176e-100
4.76071e-104
-4.95692e-122
8.12885e-110
6.52914e-116
3.87018e-115
1.61048e-118
1.98713e-123
2.08633e-125
3.49104e-128
5.56765e-132
1.24251e-137
8.74873e-141
4.42065e-140
4.75298e-144
2.04496e-145
5.08785e-147
1.00001
0.99997
1
1.00005
0.99992
0.999311
0.100118
-3.20981e-20
9.17834e-42
2.80136e-21
5.70513e-23
1.59274e-26
5.22909e-31
1.85097e-34
7.83094e-38
3.29302e-41
1.40695e-44
6.21876e-48
2.47537e-51
7.61107e-55
4.46424e-58
9.37409e-62
8.71843e-65
2.16886e-68
6.44906e-72
2.03271e-74
4.90577e-79
1.38129e-83
1.45545e-84
1.12608e-87
2.14089e-91
4.05556e-95
2.3629e-98
-2.0281e-124
9.42e-106
1.1534e-106
2.12639e-110
9.42438e-114
1.44265e-132
8.85137e-121
1.16985e-123
9.92931e-126
-3.28021e-145
1.01386e-145
2.4471e-136
9.59297e-141
3.58951e-141
2.45501e-145
3.20234e-146
5.84275e-148
0.999985
0.999986
1
1.00003
1.00017
1.00027
-1.59768e-15
-1.69934e-25
1.22003e-40
3.49733e-21
7.39311e-23
2.2093e-26
7.157e-31
2.52037e-34
1.07958e-37
4.57428e-41
1.97261e-44
7.77478e-48
3.58444e-51
1.23451e-54
5.59716e-58
2.17837e-61
1.18668e-64
4.93514e-69
3.59156e-71
3.34172e-75
4.32766e-80
1.59728e-81
3.08628e-84
-9.1439e-103
1.35991e-93
3.54897e-96
1.92285e-98
6.55587e-102
4.28526e-106
1.01994e-106
-6.05093e-126
1.55534e-113
1.99619e-118
3.00119e-119
6.94597e-124
0
2.09262e-129
4.65058e-133
7.36522e-136
1.3224e-145
1.37515e-141
1.92845e-145
1.90381e-146
3.15475e-148
0.999982
1.00002
0.999988
0.999956
1.00016
1.0001
-9.05591e-24
3.23117e-30
6.91545e-43
3.84437e-23
8.09003e-25
2.39217e-28
6.8651e-33
2.24821e-36
9.33063e-40
3.84897e-43
1.58234e-46
6.6616e-50
2.88448e-53
1.02734e-56
4.19688e-60
2.11064e-63
6.10715e-67
2.45614e-70
1.1241e-73
8.53563e-79
3.07747e-80
1.2611e-83
-1.46302e-101
5.96258e-90
3.84922e-94
6.9868e-98
6.11867e-100
2.08952e-103
-9.91383e-122
5.54599e-110
2.91289e-112
2.30824e-131
5.4468e-119
3.03063e-124
8.2516e-129
3.02554e-132
9.15416e-132
2.99224e-135
3.74802e-138
1.09689e-145
1.40465e-145
1.05007e-145
2.17111e-147
3.15224e-149
1.00003
1
1.00001
1.00002
0.999713
0.972421
-3.30872e-27
9.60028e-18
4.09067e-19
2.25041e-22
3.28741e-27
8.02244e-31
3.36423e-34
1.42671e-37
5.8832e-41
2.52762e-44
9.99359e-48
4.39289e-51
1.72575e-54
8.13366e-58
2.34571e-61
7.74688e-65
2.51422e-68
9.50906e-72
1.01977e-74
4.56702e-78
1.19235e-81
1.93949e-86
1.81372e-87
-1.78592e-105
1.61644e-93
1.98517e-98
4.20776e-100
5.54558e-126
9.10969e-108
5.42259e-111
2.64529e-116
3.03807e-116
-1.58306e-143
1.66546e-122
7.25661e-127
3.28021e-145
3.29304e-132
4.12387e-138
4.38343e-139
5.26803e-142
5.16877e-145
1.75096e-146
2.0969e-148
1.91278e-150
1.00003
1.00003
1.00002
0.999978
0.999971
0.381701
4.68864e-17
1.46825e-16
7.60639e-18
8.76211e-21
2.8323e-25
8.77047e-29
6.80644e-32
4.83611e-35
3.40492e-38
2.39423e-41
1.68023e-44
1.1774e-47
8.23396e-51
5.74474e-54
4.0028e-57
2.78325e-60
1.93073e-63
1.33725e-66
9.24193e-70
6.37286e-73
4.3888e-76
3.01615e-79
2.0679e-82
1.4159e-85
9.67276e-89
6.59381e-92
4.48861e-95
3.04911e-98
2.0668e-101
1.39905e-104
9.45e-108
6.36932e-111
4.28702e-114
2.87892e-117
1.92953e-120
1.29155e-123
8.6254e-127
5.74599e-130
3.82314e-133
2.54027e-136
1.68334e-139
1.11407e-142
2.74711e-145
9.41756e-146
0.999964
0.999976
0.999978
0.999986
1.00004
1
3.48322e-14
9.63787e-21
3.64301e-23
5.95035e-23
1.7495e-24
1.08501e-27
1.40244e-33
4.33308e-36
3.17806e-38
3.58845e-41
3.23986e-44
2.69922e-47
1.96624e-50
1.41475e-53
1.11373e-56
7.8574e-60
5.7637e-63
4.04501e-66
2.79563e-69
2.02994e-72
1.42675e-75
9.90341e-79
7.05466e-82
4.68868e-85
3.30021e-88
2.34051e-91
1.62486e-94
1.10748e-97
7.60732e-101
5.272e-104
3.57469e-107
2.50439e-110
1.72016e-113
1.17076e-116
7.97743e-120
5.38623e-123
3.68285e-126
2.47292e-129
1.68457e-132
1.11897e-135
7.62216e-139
5.02709e-142
4.14669e-145
2.06089e-145
0.999986
0.999993
1.00005
1.00004
1.00004
0.999988
2.22851e-08
2.92475e-18
9.63787e-21
4.44971e-20
1.45377e-21
1.04397e-24
5.80428e-29
3.19645e-32
2.39613e-35
1.71656e-38
1.22163e-41
8.68125e-45
6.15406e-48
4.3534e-51
3.07375e-54
2.16508e-57
1.52139e-60
1.06735e-63
7.47109e-67
5.21666e-70
3.63716e-73
2.52982e-76
1.75528e-79
1.21619e-82
8.40783e-86
5.7989e-89
3.99362e-92
2.74417e-95
1.88111e-98
1.28752e-101
8.79304e-105
5.99156e-108
4.0764e-111
2.76728e-114
1.87422e-117
1.26757e-120
8.55436e-124
5.75934e-127
3.87243e-130
2.59777e-133
1.73874e-136
1.16224e-139
7.74872e-143
2.98134e-145
1.00002
0.999993
0.99999
1.00002
0.999999
1.00024
0.000978573
2.08206e-17
2.3484e-20
1.73036e-20
4.23511e-22
2.48264e-25
2.26352e-29
1.4973e-32
1.15496e-35
8.46764e-39
6.12588e-42
4.40047e-45
3.14354e-48
2.23678e-51
1.58522e-54
1.12281e-57
7.92398e-61
5.57969e-64
3.91301e-67
2.74266e-70
1.91634e-73
1.34011e-76
9.33893e-80
6.47572e-83
4.49601e-86
3.11007e-89
2.14895e-92
1.47992e-95
1.01808e-98
6.97654e-102
4.77575e-105
3.26488e-108
2.22808e-111
1.51382e-114
1.02618e-117
6.97202e-121
4.71164e-124
3.18374e-127
2.14194e-130
1.44059e-133
9.67561e-137
6.46319e-140
4.31695e-143
2.85838e-145
0.999993
0.999987
0.999982
0.999977
1.00003
1.00004
0.231869
1.30479e-16
1.64719e-19
1.31555e-19
4.05806e-21
3.36418e-24
5.71297e-28
3.75074e-31
2.76524e-34
1.99407e-37
1.43077e-40
1.02471e-43
7.31953e-47
5.21362e-50
3.70625e-53
2.62814e-56
1.85876e-59
1.31235e-62
9.24226e-66
6.49241e-69
4.55262e-72
3.18532e-75
2.22225e-78
1.54795e-81
1.07573e-84
7.45829e-88
5.16118e-91
3.56351e-94
2.45415e-97
1.68743e-100
1.15757e-103
7.92114e-107
5.41229e-110
3.68927e-113
2.50871e-116
1.70343e-119
1.15407e-122
7.79936e-126
5.26336e-129
3.54393e-132
2.38047e-135
1.59661e-138
1.06837e-141
6.70809e-145
0.999972
1.00001
1.00001
0.999967
0.999888
0.998666
0.279336
1.43415e-16
1.73686e-19
1.33745e-19
3.99098e-21
3.12566e-24
5.18141e-28
3.41727e-31
2.51887e-34
1.81604e-37
1.30286e-40
9.32892e-44
6.66372e-47
4.74537e-50
3.3731e-53
2.39183e-56
1.69147e-59
1.19409e-62
8.40879e-66
5.90646e-69
4.14179e-72
2.89662e-75
2.02085e-78
1.40752e-81
9.78081e-85
6.77995e-88
4.69205e-91
3.23912e-94
2.2306e-97
1.53364e-100
1.05193e-103
7.19767e-107
4.91716e-110
3.35141e-113
2.27876e-116
1.54712e-119
1.04809e-122
7.08308e-126
4.77939e-129
3.21784e-132
2.1613e-135
1.44954e-138
9.69755e-142
6.33575e-145
1.00002
1.00003
1.00001
1.00002
0.999965
1.00006
0.119764
1.9901e-17
3.56062e-20
4.28077e-20
1.28729e-21
8.35614e-25
4.56634e-29
2.49297e-32
1.86343e-35
1.3296e-38
9.43067e-42
6.68668e-45
4.72982e-48
3.33767e-51
2.35293e-54
1.65476e-57
1.16099e-60
8.13146e-64
5.6846e-67
3.96498e-70
2.75985e-73
1.91716e-76
1.32856e-79
9.19769e-83
6.3502e-86
4.374e-89
3.00808e-92
2.06418e-95
1.41343e-98
9.66272e-102
6.59279e-105
4.48611e-108
3.04826e-111
2.06755e-114
1.39876e-117
9.45094e-121
6.37033e-124
4.28532e-127
2.87829e-130
1.92906e-133
1.29048e-136
8.61596e-140
5.73666e-143
2.91205e-145
1.00001
0.999978
0.999987
1.00001
1.00017
1.00042
1.08488e-06
2.51886e-18
8.18528e-21
3.61139e-20
1.18007e-21
8.4691e-25
4.62574e-29
2.52753e-32
1.893e-35
1.35436e-38
9.62867e-42
6.83847e-45
4.84503e-48
3.42539e-51
2.41729e-54
1.70213e-57
1.19558e-60
8.38468e-64
5.86633e-67
4.09476e-70
2.85358e-73
1.98436e-76
1.37659e-79
9.53526e-83
6.59005e-86
4.5438e-89
3.12832e-92
2.14895e-95
1.47272e-98
1.00781e-101
6.88114e-105
4.68713e-108
3.18838e-111
2.16387e-114
1.46524e-117
9.90741e-121
6.68454e-124
4.49968e-127
3.02473e-130
2.02887e-133
1.35775e-136
9.07385e-140
6.04911e-143
2.92799e-145
0.999951
0.999944
1.00003
1.00003
1.00014
1.00015
1.62778e-11
8.18528e-21
4.49583e-23
3.97192e-22
1.33633e-23
9.82001e-27
4.3748e-31
2.07178e-34
1.51208e-37
1.0518e-40
7.33283e-44
5.13632e-47
3.61204e-50
2.52561e-53
1.76383e-56
1.23448e-59
8.6342e-63
6.00961e-66
4.20097e-69
2.91063e-72
2.01626e-75
1.3965e-78
9.65977e-82
6.67115e-85
4.59031e-88
3.14349e-91
2.15683e-94
1.4729e-97
1.00538e-100
6.86925e-104
4.6691e-107
3.16417e-110
2.14256e-113
1.45143e-116
9.78366e-120
6.58919e-123
4.42718e-126
2.97021e-129
1.99007e-132
1.32994e-135
8.89047e-139
5.94141e-142
4.63796e-145
2.18329e-145
1.00001
1.00001
0.999995
0.999982
0.999713
0.971026
5.17848e-16
8.80114e-17
5.199e-18
6.85341e-21
2.29041e-25
6.70738e-29
5.20078e-32
3.69711e-35
2.60283e-38
1.83013e-41
1.28441e-44
9.00117e-48
6.29481e-51
4.39295e-54
3.06149e-57
2.12883e-60
1.47705e-63
1.02336e-66
7.07414e-70
4.87973e-73
3.36135e-76
2.31028e-79
1.58425e-82
1.08505e-85
7.41335e-89
5.05492e-92
3.44179e-95
2.33901e-98
1.58582e-101
1.07351e-104
7.25317e-108
4.88971e-111
3.29181e-114
2.21131e-117
1.48225e-120
9.92183e-124
6.62698e-127
4.41733e-130
2.94059e-133
1.95337e-136
1.29483e-139
8.56997e-143
2.72802e-145
7.91649e-146
1.00002
1.00002
0.999968
0.999939
1.0001
0.381387
7.6112e-18
2.08035e-17
6.04337e-19
2.35661e-22
3.67758e-27
9.73205e-31
4.08031e-34
1.72455e-37
7.27909e-41
3.14392e-44
1.30179e-47
5.54969e-51
2.72529e-54
1.08907e-57
5.37503e-61
1.94775e-64
1.13643e-67
4.21969e-71
3.05892e-74
1.90465e-77
1.30723e-80
2.19453e-84
4.09564e-87
1.2636e-90
9.17629e-94
1.69972e-96
8.07109e-100
4.65665e-103
2.04578e-106
6.03938e-109
3.52388e-112
5.33331e-116
1.20458e-118
3.37356e-122
1.11376e-125
1.16628e-128
3.54211e-131
1.5486e-134
2.18185e-138
2.55761e-141
1.36492e-144
5.35024e-146
5.54331e-148
4.59373e-150
0.999958
0.999991
0.999995
1
1.0001
1
1.41402e-14
-3.00711e-30
1.39665e-43
1.12627e-23
2.07199e-25
5.55236e-29
0
-1.77522e-58
-6.68191e-55
1.63893e-42
5.65128e-45
6.91927e-50
2.0069e-53
5.745e-57
3.91548e-60
2.23791e-63
1.14499e-66
4.16609e-70
2.08174e-73
1.29732e-76
1.08839e-79
4.19396e-83
2.85093e-86
3.19128e-89
3.57299e-92
1.28408e-95
7.11053e-99
6.47784e-102
2.80453e-105
2.3958e-108
2.19264e-111
5.12901e-115
4.15979e-118
6.07009e-121
2.37326e-124
3.08947e-127
1.71148e-130
9.66633e-134
6.17351e-137
3.88009e-140
2.84131e-143
2.71236e-145
8.50814e-147
1.39253e-148
0.999994
1.00001
1.00004
1.00002
0.999965
0.999988
1.38188e-08
-4.69574e-25
2.46524e-35
2.83045e-20
7.24097e-22
2.48947e-25
4.40699e-30
1.27333e-33
5.37842e-37
2.27355e-40
9.6145e-44
4.08197e-47
1.74263e-50
7.19285e-54
3.16628e-57
1.35501e-60
5.82907e-64
2.44928e-67
1.15483e-70
5.45176e-74
2.49263e-77
1.43462e-80
7.03484e-84
5.65492e-87
3.89196e-90
2.15194e-93
2.06912e-96
1.07241e-99
4.40278e-103
4.20398e-106
2.36287e-109
1.02072e-112
4.99109e-116
9.88318e-119
3.16437e-122
3.07691e-125
4.93819e-128
1.79831e-131
5.77029e-135
4.07225e-138
3.21347e-141
1.5352e-144
1.00167e-145
1.91282e-147
1.00001
1.00001
1.00001
0.99998
0.999942
1.00021
0.000867413
-1.08832e-20
1.97215e-34
1.33749e-21
2.74491e-23
7.71661e-27
3.8126e-31
1.51526e-34
6.6949e-38
2.98093e-41
1.28018e-44
5.56958e-48
2.49407e-51
1.30283e-54
8.45162e-58
2.35698e-61
1.10543e-64
1.64557e-67
7.11213e-71
2.195e-74
3.75645e-77
2.1928e-80
4.62693e-84
3.97267e-87
1.8451e-90
2.64285e-93
1.37861e-96
1.24135e-99
1.58658e-102
3.60153e-106
1.16326e-109
1.39468e-112
1.248e-115
4.06743e-119
2.10347e-122
4.47651e-125
1.45287e-128
5.71668e-132
4.0538e-135
3.63657e-138
2.38393e-141
1.92164e-144
9.37332e-146
1.82088e-147
0.999999
0.999998
0.999972
0.999975
1.0001
0.999975
0.223375
-1.58772e-19
2.38774e-50
1.58829e-21
6.84507e-23
7.30331e-26
8.43901e-30
2.95524e-33
1.28324e-36
5.51556e-40
2.40563e-43
1.06539e-46
4.78459e-50
2.12016e-53
9.27209e-57
5.46143e-60
3.01613e-63
1.65939e-66
8.57272e-70
3.52539e-73
6.89722e-76
4.02016e-79
1.53091e-82
4.60157e-86
8.53311e-89
7.09566e-92
2.67165e-95
1.0839e-98
8.3243e-102
9.47554e-105
6.48864e-108
3.80916e-111
1.86315e-114
8.68527e-118
4.61278e-121
6.71866e-124
4.49687e-127
3.08044e-130
1.21433e-133
8.36237e-137
6.88842e-140
4.98511e-143
2.75436e-145
1.00255e-146
0.999972
0.999987
0.999991
1.00001
1
1.00007
0.28046
-8.91574e-19
-1.53989e-48
3.23018e-21
9.83772e-23
5.67269e-26
6.63791e-30
2.70305e-33
1.16508e-36
5.02264e-40
2.16022e-43
9.52981e-47
4.32941e-50
1.90687e-53
9.70128e-57
5.34481e-60
1.80596e-63
1.39163e-66
7.98911e-70
2.86353e-73
2.40464e-76
1.43514e-79
7.09306e-83
1.14342e-85
1.08102e-88
3.63411e-92
1.45205e-95
1.83182e-98
1.33946e-101
4.97309e-105
2.69547e-108
1.92431e-111
7.13718e-115
8.83677e-118
1.20992e-120
5.69466e-124
2.70642e-127
1.45662e-130
1.2569e-133
7.24449e-137
8.89349e-140
5.88836e-143
2.7944e-145
1.01506e-146
1.00001
1.00002
1.00001
1.00003
0.999911
0.999505
0.111773
-1.23746e-20
9.86077e-35
3.23907e-21
6.58456e-23
1.8409e-26
6.15217e-31
2.17805e-34
9.31787e-38
3.97726e-41
1.67745e-44
7.28282e-48
3.38355e-51
1.33799e-54
6.98106e-58
3.09597e-61
1.3084e-64
9.05117e-68
4.05674e-71
2.51687e-74
6.99044e-78
7.29632e-81
1.06683e-83
1.32425e-86
1.79726e-90
1.04802e-93
5.6265e-97
8.82013e-100
5.23104e-103
2.43139e-106
1.28345e-109
1.39178e-112
8.09698e-116
6.4168e-119
2.36056e-122
3.32119e-125
1.9497e-128
1.45791e-131
5.98556e-135
2.89024e-138
5.3559e-141
2.30208e-144
1.03529e-145
1.91776e-147
1
1
1.00002
1.00001
1.00002
1.00029
9.60083e-07
-1.88406e-25
-1.72119e-41
2.66608e-21
5.61522e-23
1.66533e-26
5.42544e-31
1.92707e-34
8.24485e-38
3.52103e-41
1.53146e-44
6.84112e-48
3.11843e-51
1.20178e-54
7.00257e-58
2.7629e-61
1.40422e-64
6.13363e-68
3.95603e-71
1.76513e-74
1.66155e-77
1.02552e-80
5.62461e-84
2.87514e-87
3.03111e-90
1.62504e-93
6.37954e-97
2.1645e-100
2.34749e-103
1.90574e-106
1.38361e-109
1.78739e-112
4.99301e-116
6.04757e-119
2.90093e-122
2.36438e-125
1.22879e-128
8.03041e-132
6.31329e-135
2.71538e-138
3.25417e-141
1.56467e-144
8.01813e-146
1.40183e-147
0.999965
0.999971
1.00003
0.999969
1.00009
1.00013
7.13468e-12
-4.18146e-34
2.14452e-43
1.0326e-23
3.06697e-25
1.25505e-28
2.45254e-33
6.72483e-37
2.60967e-40
1.09096e-43
5.10773e-47
2.06312e-50
9.56714e-54
3.99216e-57
2.07785e-60
1.42057e-63
7.32633e-67
2.52973e-70
2.41148e-73
1.55972e-76
1.29988e-79
3.42788e-83
4.01732e-86
2.34683e-89
1.64613e-92
8.57273e-96
1.10975e-98
8.8266e-102
1.83922e-105
2.08957e-108
1.15155e-111
6.57014e-115
7.44651e-118
3.15748e-121
2.37567e-124
1.56379e-127
8.06569e-131
5.35379e-134
4.38311e-137
1.08403e-140
1.82883e-143
2.53098e-145
6.45045e-147
9.61426e-149
1
1.00002
0.99999
1.00002
0.999846
0.970154
1.34698e-16
1.81004e-17
5.71078e-19
2.46956e-22
3.78699e-27
9.67653e-31
4.06062e-34
1.71883e-37
7.2444e-41
3.0726e-44
1.29285e-47
5.49666e-51
2.28832e-54
1.00242e-57
4.58153e-61
2.10408e-64
8.41259e-68
3.61879e-71
3.03308e-74
1.29922e-77
4.6636e-81
2.32524e-84
2.34387e-87
1.21851e-90
2.25896e-93
7.90872e-97
1.59676e-99
6.05841e-103
2.5364e-106
2.79665e-109
5.70736e-113
5.58111e-116
2.29869e-119
3.65888e-122
1.21878e-125
2.33479e-128
6.67309e-132
5.02243e-135
1.96113e-138
4.59461e-141
1.58472e-144
4.91313e-146
5.05107e-148
4.1871e-150
-1.36426e-17
0.969364
-1.48162e-21
0.381487
7.85519e-12
0.962797
9.2959e-11
2.71051e-23
0.999998
6.41214e-06
1
1.41118e-08
0.999999
3.54276e-05
0.00174388
0.999944
0.231062
1.00006
0.0046835
1.00063
0.244213
0.445227
0.999226
0.944346
1.00099
0.447756
1.00012
0.953605
0.993546
1.00052
1
1.00021
0.99101
0.99977
0.998781
1
1.0003
0.996208
0.998666
1
0.999878
0.990556
0.946166
0.999299
0.4475
1.00057
0.948545
1.00044
0.45007
0.229152
0.999996
0.00178074
1.00109
0.246964
1.00016
0.00473225
3.66983e-06
1
8.08075e-23
1.00004
2.55335e-05
1
1.41182e-08
-1.98456e-21
0.372924
-1.11758e-20
0.957134
8.90427e-11
0.375453
8.37575e-12
2.61026e-11
0.959065
2.45422e-10
0.381608
2.18633e-11
0.965736
2.50439e-10
2.39365e-08
1
4.15043e-05
1
2.38208e-08
1
4.17023e-05
0.00513276
1.0002
0.234061
0.999963
0.00514093
1.00031
0.24443
0.448105
1.00057
0.921655
1.00111
0.44786
1
0.955544
0.979767
1.00028
0.994977
0.999363
0.991342
1.00002
0.991625
1
0.998665
0.988389
1.00001
0.997945
0.999485
0.980663
0.93028
1.00066
0.450253
1.00099
0.947384
1.0008
0.450231
0.233446
1.00025
0.0052311
1.00018
0.248291
1.00019
0.00519966
2.66529e-05
1
2.3388e-08
1.00048
2.93578e-05
1
2.35036e-08
4.11979e-10
0.375813
2.31623e-11
0.958092
2.3853e-10
0.37554
2.32138e-11
1.03757e-11
0.956983
9.09831e-11
0.378648
-1.54586e-20
0.970444
-1.58241e-21
1.47745e-08
1
3.2413e-05
1
2.24758e-23
0.999998
5.92775e-06
0.00465309
1.00019
0.233946
1
0.00172803
1.00047
0.23044
0.447859
1.00051
0.924346
0.999602
0.445023
0.999478
0.943714
0.985534
1.00006
0.999584
1.00026
0.99783
0.99982
0.998063
1
0.999133
0.996274
1.00002
1
1.00066
0.996787
0.937343
1.00065
0.450029
0.999649
0.94715
0.999733
0.447274
0.230389
1.00018
0.00476213
1.00003
0.229514
1
0.00177908
2.28292e-05
0.999999
1.43093e-08
0.999999
3.45025e-06
1
-5.41144e-23
2.02812e-10
0.375434
8.42201e-12
0.972342
-1.25876e-21
0.372618
-1.38732e-20
1
0.999904
1
0.999647
1
0.999838
1.00001
0.000945849
-1.92474e-16
0.461246
0.38018
0.462681
0.000452397
7.60703e-07
1.27484e-48
-2.65681e-38
-1.55346e-38
9.63282e-18
5.65668e-20
1.84505e-16
1.30699e-18
0.999999
1.00003
1
0.999989
1.00001
0.999849
0.99996
0.815951
0.442934
1
1
0.443362
1
0.81627
-1.00974e-31
-1.22102e-23
-2.64013e-25
4.14621e-13
1.84505e-16
2.01829e-10
2.63019e-14
1.00001
1.00021
1.00017
1.00088
1.00031
1.00013
1.0001
1.00001
1
1.00038
1
1
1.00033
1.00001
-5.19772e-23
-1.54177e-15
-5.97974e-18
1.37696e-08
2.02207e-12
9.443e-07
3.08647e-12
0.999911
0.999897
0.999861
1.00002
1.00001
1.00009
0.999892
1
1
0.999795
0.999495
0.999985
0.999987
0.999856
-6.77713e-17
0.099113
-3.30674e-17
0.000857331
1.59695e-11
0.0909922
1.49469e-11
1.00007
0.999902
0.999871
0.999568
0.999641
0.999898
1.00002
0.999714
0.999814
0.998934
0.999057
0.999368
0.999014
0.998981
-2.41625e-17
0.282076
-1.23368e-16
0.214648
1.16659e-10
0.2918
1.16657e-10
1.00008
1.00002
1.0002
1.00011
1.00042
0.999973
1.00011
1.00006
1.00127
1.00123
1.00118
1.00101
1.00063
0.999614
-8.74801e-16
0.214826
-3.09709e-16
0.284068
1.81751e-10
0.223683
1.81753e-10
0.999841
0.999934
1.00004
1.00042
1.0001
1.0001
1.00001
0.999968
0.999331
1.00031
1.0002
0.999863
1.00027
0.999205
-4.20171e-17
0.000242665
-4.21691e-17
0.0995865
1.44815e-11
0.000948756
1.44811e-11
0.999998
0.999988
0.999777
0.999638
0.99956
0.999888
0.999901
1
1
0.998954
0.998691
1
0.999185
1
-2.91702e-19
-6.29589e-21
-2.18968e-23
9.73446e-07
1.95472e-12
1.34686e-08
1.95485e-12
1.00011
1.00012
1
1.00021
1.00015
1.00004
1.00001
0.935799
1
1
1
1
1
0.937703
-1.03398e-28
4.23516e-25
4.03897e-31
2.06585e-10
2.65059e-14
4.29549e-13
1.92066e-16
1
0.999861
1
0.999911
1.00001
0.99992
1
0.0286462
0.156435
0.781354
0.962926
0.168467
0.781344
0.0259029
1.97202e-34
-1.32592e-26
-1.58745e-40
1.92066e-16
1.49871e-18
1.04404e-17
5.95359e-20
1.00003
0.999897
1.00006
0.999584
1
0.999939
1.00003
0.001867
3.09922e-06
0.464249
0.381919
0.0017837
0.464553
3.37517e-06
1.02174e-17
5.70117e-16
3.8033e-17
4.8538e-17
7.66712e-18
5.64064e-16
4.23052e-17
1.00001
0.999908
1.00001
0.999699
0.999975
0.999846
1.00002
0.816869
0.444787
1
1
0.812822
0.444321
1.00001
5.33401e-16
3.42767e-10
3.42989e-14
7.99837e-13
5.23147e-16
3.41444e-10
1.21587e-13
1
1.0001
1.00005
0.999927
0.999829
1.00008
0.999994
1
1
0.99972
0.999952
1
1.00002
1.00003
8.37562e-12
1.12055e-06
1.4499e-11
2.26458e-08
8.37562e-12
1.17196e-06
1.44898e-11
1.00003
1.00004
0.999891
1.0002
1.0001
1.00008
0.999918
0.999829
1.00003
0.999327
1.00088
0.999919
1.00022
0.999051
9.42783e-11
0.125619
6.21757e-11
0.000952131
9.42359e-11
0.0888541
6.21757e-11
1
0.999978
1.00008
0.999466
1.0001
0.999999
1.00013
1.00025
1.00027
1.00071
0.999696
1.00023
1.00003
1.0008
4.78532e-10
0.294401
4.78528e-10
0.213086
4.78532e-10
0.301006
4.7853e-10
1.00007
0.999873
1.00003
1.00033
0.999983
0.999897
0.999994
0.999996
1.00026
1.0004
0.999721
1.00032
1.00028
1.0004
5.29519e-10
0.225646
5.29521e-10
0.288606
5.29519e-10
0.236583
5.29521e-10
0.999967
1.00002
0.999991
1.00008
0.999965
1.00006
1.00001
0.999175
0.99938
0.998169
1.00074
0.999798
0.999224
0.999243
5.90708e-11
0.00107706
8.63508e-11
0.101027
5.90708e-11
0.0010551
8.62541e-11
0.999953
1.00004
0.999995
0.999044
0.999942
0.999964
1
1.00008
1.00017
1.00011
1.0002
1.00006
1.00008
1.00028
1.16693e-11
2.22272e-08
8.1942e-12
1.25605e-06
1.15753e-11
2.22568e-08
8.1942e-12
1.00004
0.999924
0.999998
1.00072
0.999942
1
1.00001
0.937348
1
1
1.00042
0.928343
1
1
6.51831e-14
8.09231e-13
4.74212e-16
3.48653e-10
6.51831e-14
8.24441e-13
5.54614e-16
1
0.999909
1.00001
1.00111
1.00006
1
1
0.0325049
0.160147
0.781778
0.95568
0.0272889
0.178398
0.780552
4.51433e-17
5.40849e-17
1.04999e-17
5.98442e-16
4.52047e-17
5.4299e-17
1.05219e-17
1.00002
1.00004
1.00016
0.999974
1
0.999972
1
0.00129181
2.47557e-06
0.463945
0.380308
0.00160392
0.462862
1.61294e-06
5.59188e-20
1.82841e-16
1.37837e-18
-2.74582e-28
-1.23272e-35
-2.77258e-27
-3.36561e-40
1.00004
0.999918
1.00002
1.00029
1
0.999927
0.999809
0.817604
0.444749
1
1
0.812811
0.443567
1
1.82841e-16
2.02633e-10
1.41402e-14
-1.70692e-28
-4.49455e-28
3.27884e-25
-1.84387e-25
0.9998
0.999974
0.999969
1.00057
0.999893
0.999964
1.00007
1
1
1.00004
1.00001
1.00001
1.00001
0.999782
2.0386e-12
9.57287e-07
3.03318e-12
-1.94212e-20
-3.85197e-23
-1.9223e-15
-5.74848e-21
1.00005
1.00005
0.999917
0.999885
1.00012
1.00004
1.00011
0.99973
1.00004
0.999545
1.00058
0.999846
1.00011
0.998923
1.65369e-11
0.122425
1.58197e-11
0.000215846
-2.40278e-19
0.0991503
-1.61593e-18
1.00025
1.00009
1.00017
1.00003
1.00018
1.00013
0.999851
1.00012
0.999828
1.00035
1.00005
0.999722
0.999598
1.00149
1.31992e-10
0.293381
1.31991e-10
0.204284
-4.14568e-18
0.28979
-5.79312e-17
0.999871
1
1
1.00002
0.999764
0.999959
1.00006
1.00003
1.00019
1.00027
0.99946
0.999685
1.00043
1.00019
1.45007e-10
0.215549
1.45008e-10
0.280733
-1.67855e-16
0.214111
-4.02663e-17
0.999956
1.00006
1.00001
1.00024
1.00003
1.00004
1.00019
0.999733
0.999482
0.998995
1.00046
0.999639
0.999588
0.998954
1.48212e-11
0.000963198
1.48213e-11
0.0987872
-9.91294e-19
0.000240538
-1.36739e-19
1.00016
0.999918
1.00001
0.99996
1.00015
0.999967
0.999808
1
1.00007
0.999634
1.00015
1
1.00009
0.999552
1.97307e-12
1.35958e-08
1.97307e-12
-1.35972e-15
-5.25366e-23
-5.96302e-21
-2.14156e-23
0.999784
0.999869
0.999996
1.00016
0.999761
0.999805
0.999998
0.93841
1
1
1.00002
0.929166
1
1
1.47381e-15
4.24999e-13
1.34698e-16
-2.42692e-23
-6.70258e-28
4.2351e-25
-3.21507e-30
1.00006
1.00015
1.00001
0.999726
1
1.00018
1
0.0292896
0.161018
0.78118
0.964371
0.0278212
0.166934
0.780479
1.36763e-18
1.04619e-17
5.9933e-20
-3.10066e-29
1.97154e-34
-3.28784e-29
-1.2326e-35
2.52229e-09
-1.33905e-22
-1.08001e-17
6.54e-13
6.54189e-13
-2.32842e-19
1.22554e-09
0.0304469
0.780389
0.156288
0.963821
0.781199
0.163558
0.0298873
2.03101e-08
-1.33595e-22
-4.89765e-18
2.01442e-11
2.01442e-11
1.23039e-07
-1.47877e-17
0.00129666
0.380573
2.46912e-06
0.464083
0.463011
0.00161237
1.60469e-06
7.419e-09
7.85538e-12
7.41403e-09
7.85536e-12
7.85519e-12
1.38614e-08
3.86888e-09
0.0323939
0.96393
0.781224
0.166034
0.780069
0.16367
0.0319945
4.55986e-08
9.2959e-11
9.29588e-11
3.93941e-07
9.2959e-11
2.62956e-07
6.77993e-08
0.0390537
0.000382764
0
2.79595e-09
0.000755264
2.79595e-09
0.0385729
0.934823
1
1
1.00001
1.00001
1
0.939632
0.105163
-3.39479e-22
0.401446
1.56306e-05
8.21591e-08
0.401875
0.0991714
0.814008
1
0.444575
1
0.443754
1
0.816588
0.0417618
1.41118e-08
0.00130483
1.41118e-08
0.00103937
1.41118e-08
0.0396615
0.936449
0.999992
1
1
1.00001
1
0.932956
0.103738
2.35888e-05
3.69713e-07
0.403497
3.69713e-07
0.402104
0.109155
0.824404
0.50826
0.0516305
0.00310974
0.508903
0.053958
0.825519
1
1.00005
1
1.00002
1.00002
1
1
0.942073
0.0985979
0.997913
0.242674
0.100923
0.998466
0.943411
1
1.00004
1.00001
0.999523
1
1.00023
1
0.825107
0.00396801
0.510384
0.0563447
0.508952
0.053375
0.823724
1.00001
1.00076
1.00001
1.00012
1.00012
1.00022
1
0.938798
0.238123
0.100763
0.987213
0.10514
1
0.943397
1
1
0.544731
0.446441
1
0.546205
1.00002
0.999967
1.00026
0.999372
1.00008
1.00024
0.999813
0.999472
1
0.846735
1
0.948819
0.844383
1
1.00001
1.00002
1.00006
1.00019
0.999679
1.00004
1.00017
0.999926
1.00001
0.446831
1.00001
0.547538
1.00001
0.546005
1
0.999515
1.00065
0.998871
0.999845
0.998838
0.999789
0.999638
1
0.932796
0.842432
1
0.847288
1
1
1
1.00001
1
0.99562
1
0.992609
1.00001
1.00001
0.999808
1.00057
1.00053
1.00017
1.00025
0.999262
1
0.999648
1.00001
0.99582
0.993346
1
1
0.999935
0.999396
1.00053
1.00148
0.999788
1.00004
1.00022
1
0.98349
1.0001
0.999083
1
0.984584
1
1.00003
0.999589
1.00034
0.999684
1.00019
0.999643
1.00007
1
0.988232
0.99866
1
0.992632
1
1
1
1.00006
0.993255
0.999652
1.00013
0.995775
1
0.999824
1.00046
1.00023
1.0001
1
0.999968
0.998158
1
0.986446
1.00001
0.996552
0.990224
1
1.00001
0.999809
0.999753
0.999852
0.999693
0.999998
0.999924
1.00051
1
1
1
0.98657
1.00002
0.998028
1
1.00006
0.998994
1.00008
0.99991
1.00083
0.999656
1.00004
1
0.988741
0.980368
1
0.991209
1
1
1
1
0.847228
0.947108
1
0.846138
1.00002
1.00002
1.00024
1
0.999801
1.00022
1.00003
0.999975
1.00001
0.544535
1
0.448651
0.545831
1
1.00001
0.999788
1.00012
0.999509
0.998169
0.999927
0.999362
0.999549
1.00002
0.938128
1
0.845145
1
0.846703
1
0.999905
1.00053
0.999706
1.00009
0.999455
1.00016
0.999917
1
0.448973
0.547093
1.00001
0.545869
1.00003
1
0.939708
1
0.101043
0.238147
0.994849
0.103768
0.941358
1.00003
0.99942
1
1.00012
1.00032
1.00002
1
0.834736
0.0509262
0.509932
0.00315304
0.0503835
0.5105
0.833726
1
0.999497
1.00028
1.00056
1
0.999727
1.00017
0.93618
0.231997
0.988089
0.107215
1
0.107961
0.937868
1.00037
1.00032
1.00127
1.00005
1.00214
1.00007
1.00034
0.83026
0.00404699
0.0508123
0.51195
0.0561376
0.51057
0.835188
0.103661
0.398963
-3.78301e-22
1.02629e-05
0.399452
8.32656e-08
0.100914
0.815459
1
0.443962
1
1
0.444463
0.817397
0.0383341
0
0.000395815
2.80279e-09
2.80279e-09
0.00077631
0.0359797
0.932595
1.00002
1
1.00004
1
1.00001
0.935802
0.1077
1.54822e-05
0.401113
3.75874e-07
0.399632
3.75874e-07
0.105573
0.8162
1
1
0.445692
1
0.444526
0.81465
0.0380285
1.41182e-08
1.41182e-08
0.00132819
1.41182e-08
0.00108728
0.0406805
1.92179e-08
-3.92053e-18
-1.07052e-22
2.28101e-11
1.28818e-07
2.28101e-11
-1.17462e-17
0.00120292
0.469109
-9.90412e-17
0.373919
0.470644
0.000596807
7.49302e-07
2.77227e-09
-2.31841e-21
-1.14099e-22
6.8524e-13
6.85381e-13
-2.88616e-19
1.20895e-09
0.0264418
0.971558
0.176628
0.781008
0.15837
0.781671
0.0315316
3.75507e-08
8.90427e-11
4.10609e-07
8.90425e-11
2.54417e-07
8.90427e-11
6.74064e-08
0.0016381
0.374244
0.471954
2.42579e-06
0.471062
0.00202482
1.5823e-06
8.06485e-09