/*--------------------------------*- C++ -*----------------------------------*\
| =========                 |                                                 |
| \\      /  F ield         | OpenFOAM: The Open Source CFD Toolbox           |
|  \\    /   O peration     | Version:  5.0                                   |
|   \\  /    A nd           | Web:      www.OpenFOAM.org                      |
|    \\/     M anipulation  |                                                 |
\*---------------------------------------------------------------------------*/
FoamFile
{
    version     2.0;
    format      ascii;
    class       surfaceScalarField;
    location    "0.2";
    object      alphaPhi10;
}
// * * * * * * * * * * * * * * * * * * * * * * * * * * * * * * * * * * * * * //

dimensions      [0 3 -1 0 0 0 0];

internalField   nonuniform List<scalar> 
12667
(
1.43249e-09
9.3242e-12
-5.51628e-11
1.41281e-09
-1.9878e-11
3.4731e-11
1.32814e-09
8.51731e-11
6.5581e-11
2.14691e-10
-8.25319e-11
1.67686e-10
1.67303e-10
4.6189e-10
3.54374e-10
3.02569e-11
-8.74759e-11
3.69028e-11
6.74333e-11
3.12659e-11
6.07665e-11
1.08124e-09
1.53663e-14
2.73604e-12
2.29111e-10
-3.17711e-22
2.37965e-22
-3.47166e-23
7.73806e-24
-8.31819e-23
-5.43502e-22
8.62364e-22
5.10758e-26
-9.85754e-26
-7.29701e-27
7.17025e-27
-8.35548e-25
1.3593e-25
-7.82222e-24
2.42667e-29
-8.40748e-28
-5.05614e-29
5.23229e-34
-3.55163e-32
1.01186e-33
1.17436e-37
-6.78246e-36
4.42433e-36
4.47947e-41
-1.29635e-39
-3.12751e-39
1.79224e-44
-2.53368e-43
2.31165e-43
7.29655e-48
-5.48515e-47
-1.17687e-46
2.99523e-51
-1.12512e-50
4.92229e-49
1.25609e-54
-1.6374e-54
3.34733e-51
5.08718e-58
-5.33042e-58
-3.89898e-56
2.14478e-61
-2.27053e-61
-9.92628e-59
8.86899e-65
-1.46123e-64
3.14266e-61
3.62927e-68
-2.14869e-68
-2.08048e-65
1.52602e-71
-8.69351e-72
-1.03516e-67
6.35397e-75
-6.95673e-77
-2.25215e-71
6.61546e-78
1.18296e-78
1.0559e-74
3.33948e-81
8.35521e-82
7.08014e-78
-8.4611e-84
5.96038e-87
-4.32746e-80
1.80136e-87
-8.76968e-89
-1.43286e-83
-5.87292e-90
6.32618e-92
1.89384e-86
-1.32623e-93
9.49051e-96
4.14726e-90
-1.9565e-96
1.71474e-99
2.07151e-93
5.76885e-100
8.63413e-105
-9.71476e-97
-1.01481e-104
-3.87302e-105
-6.82123e-100
-8.91425e-106
-7.82408e-109
3.42945e-103
2.30027e-108
5.41026e-112
-2.55152e-105
3.33482e-112
1.49353e-115
5.90474e-109
-7.49231e-116
-2.21449e-121
1.09601e-111
-2.75485e-119
-8.07515e-122
-1.42374e-115
3.17693e-121
-1.87656e-124
-1.93821e-118
4.78273e-126
-1.03216e-127
6.74363e-122
1.14935e-127
2.2242e-131
-4.0036e-125
-1.41157e-131
6.42392e-134
7.02461e-128
-2.60986e-134
4.55458e-138
5.76539e-131
1.64466e-138
-1.08882e-139
-2.85198e-134
1.43679e-140
-2.08321e-143
-1.89882e-137
-2.93648e-143
8.11852e-146
1.27274e-140
3.29641e-147
2.1521e-149
1.61942e-144
5.9383e-151
-7.16346e-154
-2.90806e-147
2.58894e-153
2.2457e-155
-8.8622e-151
2.72865e-155
1.10062e-157
1.52246e-153
3.34844e-157
2.9673e-160
-4.40678e-156
1.91573e-161
4.68931e-158
1.46842e-09
1.94326e-11
-9.43813e-11
1.44628e-09
-1.30311e-11
7.91302e-12
1.46285e-09
5.16056e-11
3.79722e-12
2.69242e-10
-3.11077e-11
8.80353e-11
2.07988e-10
4.96342e-10
3.72579e-10
7.21996e-12
1.13414e-10
1.23157e-11
1.26589e-10
-3.23459e-10
-3.59857e-10
1.13852e-09
-1.6828e-10
-1.87148e-09
-8.6307e-18
6.20315e-20
1.00101e-18
-6.50224e-18
-3.58933e-20
-6.5864e-17
-1.43278e-16
2.23091e-16
8.39149e-24
-2.95818e-21
-2.42921e-23
-2.8e-22
-2.70436e-21
-1.15978e-21
7.37045e-21
2.05637e-28
-2.72314e-25
-2.98906e-28
6.97026e-32
-6.60132e-29
1.13458e-31
1.35226e-35
-2.01891e-32
6.52296e-35
2.53898e-39
-5.2134e-36
2.03101e-38
7.37559e-43
-1.48594e-39
-3.22082e-42
1.64658e-46
-3.41986e-43
-7.63917e-44
1.52567e-49
-5.52771e-47
-1.14491e-47
6.2257e-53
-3.09121e-51
9.67369e-51
1.76762e-56
-2.63076e-54
-2.07917e-54
7.13615e-60
-2.09541e-57
-2.48418e-57
2.95935e-63
-1.2756e-60
6.88962e-60
1.23737e-66
1.97737e-65
5.26357e-64
2.09109e-69
1.06425e-68
-1.81552e-66
3.40691e-73
-1.08324e-71
-1.95992e-70
2.0863e-76
4.50031e-75
2.84589e-73
3.15947e-80
1.87384e-78
-2.85793e-76
3.97379e-82
-6.55856e-83
-3.01357e-79
-2.94791e-86
5.57508e-85
5.82999e-83
-1.619e-89
1.40016e-88
9.93826e-86
-4.73485e-95
-1.1688e-91
3.27987e-89
-2.7719e-95
-1.07758e-94
1.58234e-92
-2.99208e-98
-3.59049e-98
-1.04888e-95
1.96807e-101
2.43192e-102
-2.77398e-98
1.05979e-104
-1.07441e-105
-1.43073e-101
-5.83966e-108
8.84773e-109
2.43743e-104
-1.7185e-111
6.30816e-112
9.0247e-108
2.93626e-114
-1.26601e-114
-2.45068e-111
2.90772e-118
-4.87649e-118
-3.8025e-114
-2.23174e-120
4.39907e-123
2.81063e-117
5.76538e-124
-2.28489e-126
-1.38124e-120
-7.4647e-127
-9.98005e-130
1.73764e-123
3.18374e-131
7.33437e-132
3.33606e-127
5.09275e-136
-3.31096e-134
-1.48518e-130
8.67936e-136
-2.14743e-137
-8.92254e-133
-7.10357e-141
-3.46169e-141
-3.51565e-136
-1.0486e-143
1.45976e-145
-1.00899e-140
4.86495e-146
-1.68587e-147
9.40047e-143
-1.62757e-149
-2.08863e-151
1.58677e-145
3.45507e-152
8.44214e-154
-5.74894e-149
2.5388e-154
1.53129e-156
-9.09624e-152
6.32022e-156
4.35364e-159
9.72112e-155
4.81455e-161
3.03711e-157
1.43308e-09
1.93768e-11
-6.36775e-11
1.40355e-09
-4.31286e-12
5.39251e-11
1.39103e-09
5.60677e-11
7.07569e-12
1.72888e-10
-4.00998e-11
1.56613e-10
2.63163e-10
3.99412e-10
4.06056e-10
-5.20157e-11
2.36473e-10
4.82933e-11
-5.79736e-11
-9.11438e-11
-8.48708e-11
1.00469e-09
3.25252e-11
-8.21019e-10
-1.55132e-14
-2.40231e-16
-2.43798e-17
6.65768e-16
-2.30727e-12
-9.10885e-14
1.12749e-13
-6.97506e-16
-1.22538e-15
-5.91845e-16
-5.82525e-16
5.09058e-20
-6.78427e-22
-1.87566e-21
-3.37063e-20
1.19403e-19
-1.2197e-18
1.08579e-18
3.01646e-27
-3.45495e-27
-2.28113e-25
1.6039e-30
-8.25275e-31
3.83976e-30
3.95877e-33
-6.34875e-34
-7.55766e-33
3.80785e-37
-1.72106e-37
-1.81092e-36
1.49842e-40
-2.16612e-41
1.15049e-39
6.3028e-44
8.97319e-45
5.86862e-43
2.65131e-47
1.09341e-47
6.73402e-46
1.32605e-50
3.82932e-51
-3.74307e-48
5.05104e-54
5.11137e-55
-1.02529e-51
1.93924e-57
9.22347e-58
3.08607e-55
1.93149e-60
1.85905e-61
-7.24258e-58
3.34763e-64
6.86955e-65
-1.67721e-61
8.85818e-68
-4.80771e-68
-3.62918e-66
5.76017e-71
-9.61548e-72
4.32035e-68
2.38005e-74
-1.38612e-74
3.03631e-71
2.08945e-76
-6.39071e-78
-1.38759e-73
-1.23304e-80
-2.20389e-81
-4.35644e-78
2.96805e-83
3.12194e-87
-2.30089e-80
1.14858e-86
9.50436e-89
-1.91908e-83
3.5004e-91
-9.17308e-92
-3.32579e-87
2.64215e-92
7.85911e-95
-1.78414e-89
4.33322e-96
2.40186e-98
4.71442e-94
-3.64761e-100
9.91978e-102
6.14033e-97
3.94965e-102
2.96682e-105
-1.71275e-99
-2.15455e-107
-4.65051e-109
1.41155e-102
6.79102e-109
2.68051e-112
-1.53234e-105
2.47943e-111
1.43063e-115
-1.79664e-108
-2.81902e-115
-1.34453e-117
-9.69303e-113
-5.03757e-118
-4.1299e-121
4.05271e-115
1.39323e-121
5.64953e-125
-2.88028e-118
1.03778e-124
-1.19653e-127
-2.05927e-121
1.26836e-128
-7.37923e-132
-2.75506e-126
2.01858e-131
-4.32113e-134
-7.81787e-128
7.48398e-134
2.92315e-137
-1.11225e-130
-1.74387e-137
3.39834e-140
2.36741e-134
1.04541e-140
2.10706e-144
1.32487e-137
2.29524e-144
-6.33599e-147
-9.04558e-141
1.13707e-147
-3.56984e-152
-8.62395e-144
-2.51201e-151
2.41004e-153
-2.67999e-147
-1.85552e-153
2.20858e-156
2.43597e-150
3.79832e-155
-1.4433e-158
1.04778e-152
-1.5488e-160
-4.60289e-156
1.46795e-09
1.13232e-11
-4.68989e-11
1.45723e-09
-4.28777e-12
4.49484e-11
1.48469e-09
4.18901e-11
-2.19236e-11
2.78892e-10
-6.07499e-11
2.48225e-11
2.73704e-10
4.71062e-10
4.28522e-10
-1.00144e-11
2.61889e-10
3.94398e-12
3.77865e-11
1.27206e-11
-2.99773e-11
-2.93044e-12
-1.66174e-11
4.18105e-11
-1.51161e-12
2.5021e-15
1.21996e-15
1.30634e-14
1.59761e-16
3.78827e-20
-4.87075e-21
-3.11818e-21
-3.59114e-21
-3.62288e-19
1.2491e-19
2.10123e-19
8.182e-28
-5.61624e-25
-3.52003e-26
1.53397e-31
-2.25672e-28
7.78137e-30
7.84308e-34
-2.04384e-32
1.04122e-33
4.9479e-39
-4.05692e-36
-3.50337e-36
-8.46006e-43
-1.76354e-39
-1.75045e-39
-3.77421e-46
-4.27811e-43
-2.70603e-43
-1.57628e-49
-1.91228e-46
6.01981e-46
-6.64908e-53
-4.47313e-50
-9.47812e-50
-2.39045e-56
5.31231e-54
1.63946e-52
-9.46382e-60
2.6488e-57
-8.43563e-57
-1.33899e-62
-1.70009e-60
4.54279e-59
-2.14274e-66
-1.20187e-63
-1.2743e-61
8.70426e-68
1.68374e-67
-2.29869e-64
4.03627e-73
1.80695e-70
-8.03438e-68
-8.09319e-76
1.05383e-73
-8.11561e-71
-1.43237e-80
7.66544e-77
-9.86749e-74
7.75799e-83
3.12724e-80
9.16488e-78
4.48842e-84
8.19789e-85
-1.73956e-80
-1.77178e-86
-1.453e-87
2.17724e-83
-2.05006e-89
2.19614e-91
2.30347e-86
3.07937e-95
4.37943e-94
-1.08964e-89
-8.49787e-97
-9.57593e-98
-7.22952e-93
3.60285e-102
-9.283e-101
-8.75349e-97
-7.76681e-103
3.59028e-105
8.81692e-100
-9.58331e-107
-4.33839e-108
3.75041e-103
2.82751e-109
8.34452e-111
-1.74871e-105
1.61505e-112
5.92725e-114
-1.61204e-108
1.02797e-115
-1.07011e-116
7.13725e-112
-2.50658e-118
-5.23177e-120
6.19737e-116
1.54865e-121
3.52361e-124
-1.62447e-118
2.58358e-127
-4.54816e-127
-6.88609e-122
-4.96433e-128
-1.36429e-129
4.01873e-126
1.08871e-131
1.01751e-133
-1.77917e-128
1.87136e-134
3.25454e-136
3.10869e-132
3.30472e-138
-5.88794e-140
3.06663e-134
-5.68818e-142
-3.81295e-143
-8.57322e-138
8.02719e-144
1.1504e-146
-1.71537e-140
1.51393e-147
2.69003e-149
-1.33324e-145
-3.98048e-151
-2.13136e-152
2.42872e-147
-1.28882e-153
-4.76748e-155
1.21267e-150
2.55687e-155
-4.1843e-158
-7.266e-153
4.1824e-160
-3.6854e-156
1.45503e-09
-5.567e-12
-2.34771e-11
1.41789e-09
-1.06148e-11
-3.03258e-12
1.41736e-09
1.25084e-11
3.05038e-11
1.78025e-10
-2.01484e-11
1.54887e-10
2.80207e-10
2.97268e-10
4.82069e-10
-1.46246e-11
1.51207e-10
7.53786e-11
-4.20819e-11
-8.8841e-11
-8.16717e-11
-5.26287e-11
2.14571e-11
1.97098e-10
-2.48179e-09
1.15158e-12
4.7565e-14
-8.1807e-11
4.46062e-15
1.59865e-19
1.37347e-20
-1.56656e-20
-1.43348e-18
-8.10359e-19
6.31164e-18
-4.23083e-18
-7.68796e-26
-1.47793e-24
-2.96104e-25
1.06424e-29
1.21313e-28
-3.15337e-28
-2.58841e-32
1.95356e-32
-2.93473e-31
2.50074e-35
1.25197e-36
1.24201e-34
1.39494e-39
8.15953e-40
6.99062e-38
5.23008e-43
7.62154e-44
-1.43476e-41
2.17525e-46
3.25788e-47
4.41675e-46
9.30569e-50
-2.10511e-50
-1.32053e-47
3.9264e-53
-1.58846e-53
-7.5938e-51
9.65657e-57
-1.15125e-56
5.79783e-54
6.62892e-60
-1.32408e-60
-2.65948e-57
2.81688e-63
1.2103e-63
-3.14819e-60
8.96825e-66
-5.97949e-67
-4.01251e-63
3.02401e-70
4.45248e-70
1.84367e-66
1.96044e-73
1.21177e-73
-8.55249e-70
1.29937e-75
-6.44403e-78
2.35709e-73
-1.89164e-78
2.34801e-80
3.33794e-75
1.23362e-82
-1.76703e-84
6.73945e-79
1.60061e-84
6.4949e-88
-1.26764e-81
2.74314e-90
9.43998e-91
-2.5333e-85
-1.09112e-91
1.20638e-95
3.57893e-88
-8.50786e-95
4.50263e-97
4.15551e-91
2.06071e-97
1.30748e-100
-1.40207e-94
5.50338e-104
-2.96888e-104
-3.02283e-98
-9.29629e-105
2.75508e-107
2.78804e-101
2.31031e-107
-2.10002e-110
1.29891e-104
-1.39041e-110
-1.90241e-113
4.98348e-107
4.85154e-114
-6.8668e-117
-2.76055e-111
3.74747e-117
-3.71745e-120
-7.95276e-114
-1.06848e-120
-2.98965e-123
3.42261e-117
-6.42784e-123
2.1983e-126
5.92227e-120
4.85681e-126
1.30142e-129
-3.31573e-123
-1.66529e-130
7.75075e-134
1.00297e-126
-1.35512e-132
5.03656e-136
1.50643e-129
-6.8747e-137
8.14235e-140
-1.21671e-133
6.67487e-139
3.91167e-142
-1.00898e-135
5.85692e-143
-1.76443e-146
-3.00807e-139
-1.82332e-145
-2.17789e-149
3.74742e-142
-1.57953e-148
-1.88512e-151
1.73287e-145
1.06045e-151
-1.16953e-154
-1.49601e-148
3.02688e-154
1.49132e-157
-7.84993e-152
2.4245e-159
1.52603e-154
1.48604e-09
-2.02194e-11
-1.12282e-10
1.45657e-09
-1.1166e-11
-4.18742e-12
1.56018e-09
-4.02528e-11
-3.10644e-11
2.21875e-10
3.29718e-11
4.1462e-11
3.30055e-10
3.60042e-10
5.49375e-10
-3.99484e-11
3.53738e-11
-4.32994e-11
2.69448e-10
6.41566e-12
-2.11078e-11
1.56575e-11
-2.56154e-12
2.04704e-12
-1.26324e-09
2.61534e-12
-3.06107e-12
6.60823e-11
-2.48879e-14
2.525e-19
-2.69008e-20
1.14212e-20
3.42809e-19
2.0648e-18
-2.97903e-18
3.45445e-19
2.51735e-26
-4.7727e-24
7.42283e-25
1.95847e-29
-5.70071e-28
-7.60442e-29
5.30864e-33
-1.41099e-31
-1.98921e-32
-5.01925e-38
-3.38503e-35
-2.1626e-35
-4.11281e-41
-8.82005e-39
-1.17311e-37
-1.77277e-44
-2.20578e-42
-2.26153e-41
-9.82947e-48
-5.04501e-46
2.04819e-44
-4.14244e-51
-1.53194e-49
-7.60709e-49
-1.64457e-54
-3.24022e-53
-1.86613e-51
8.1622e-58
-1.40699e-56
-9.65495e-54
-2.73994e-61
-2.77239e-60
-2.86807e-58
-1.13669e-64
-1.87929e-64
1.50247e-60
2.08565e-66
1.50824e-66
-5.51256e-63
-1.71199e-71
3.27071e-70
-5.32372e-67
-9.14869e-73
9.44152e-74
1.83401e-69
1.10732e-75
5.87987e-78
-4.57098e-74
-1.44684e-79
1.29911e-81
4.46629e-76
-4.95722e-83
3.20784e-84
9.58874e-80
1.37681e-87
-1.01226e-88
-3.96877e-82
1.72798e-88
3.42998e-91
2.31468e-85
-1.34794e-91
-6.29285e-95
1.80299e-88
6.42475e-95
-2.59256e-97
-9.635e-92
9.14122e-98
-3.53022e-101
-1.6478e-94
4.84615e-102
-2.61852e-104
-1.91234e-98
-1.54804e-104
-4.82132e-108
1.58069e-101
1.75285e-107
2.95625e-111
-2.97348e-104
1.77349e-110
1.2092e-114
-3.05372e-107
4.32211e-114
6.45021e-118
1.46202e-111
1.41037e-118
1.81026e-121
1.74847e-114
-8.46675e-121
-2.21901e-124
1.33014e-117
2.12489e-123
5.02442e-127
-2.45723e-120
9.80959e-127
4.09171e-130
-1.06972e-123
-1.08111e-132
1.3872e-134
5.23972e-127
1.2374e-133
2.09325e-136
-1.88241e-130
3.61248e-136
-9.65567e-140
-8.46434e-133
2.06483e-139
7.69287e-144
-3.44936e-136
-3.83557e-142
4.19619e-147
4.40254e-139
-1.7713e-149
-2.63098e-150
3.19729e-143
1.29135e-148
-5.6362e-152
-1.51551e-145
6.02403e-152
2.80139e-156
-1.2197e-148
2.3255e-154
8.50316e-158
2.11608e-151
-5.50384e-160
7.99639e-155
1.4256e-09
-1.91349e-11
-5.96963e-11
1.44299e-09
-6.05198e-12
2.08677e-11
1.47287e-09
-5.84865e-11
-1.5082e-11
2.17802e-10
2.01141e-11
7.04715e-11
2.73521e-10
4.47609e-10
4.6797e-10
6.8286e-11
1.72952e-10
3.77603e-12
-1.52729e-11
1.03467e-10
2.56887e-11
4.51384e-11
3.50939e-11
-2.05952e-10
-5.11013e-10
-1.47721e-12
4.76849e-13
-2.32636e-11
-9.79134e-15
3.16446e-20
8.93002e-22
-2.41647e-21
1.4272e-19
2.61081e-21
-2.32502e-19
3.33464e-20
1.948e-27
3.04453e-26
1.56393e-26
5.5158e-30
8.26002e-30
-1.0789e-29
2.02317e-33
2.84703e-33
-4.52815e-33
2.06414e-37
7.35612e-37
-9.02376e-37
8.1467e-41
1.7597e-40
3.42548e-40
3.41795e-44
4.61977e-44
2.15665e-43
1.43294e-47
1.21155e-47
-2.04373e-45
5.99916e-51
3.18408e-51
-6.72515e-49
2.50468e-54
9.77126e-55
1.01648e-52
9.76187e-58
4.0029e-58
-4.3499e-55
3.38849e-61
-1.24813e-61
-1.84996e-58
1.83022e-64
5.84883e-65
1.14089e-61
1.45003e-67
-2.84853e-69
-2.10866e-64
3.07806e-71
-1.50716e-71
4.2437e-68
4.72373e-75
9.06962e-76
5.92798e-71
1.1179e-76
2.16368e-78
-9.83708e-74
7.36617e-81
3.08745e-82
-1.00593e-77
-3.99318e-83
-2.11325e-85
3.68973e-80
-8.41401e-87
3.24668e-89
1.56215e-83
-3.52029e-91
1.16019e-92
3.02806e-87
-2.5841e-93
-1.09403e-94
-6.57546e-90
8.1362e-96
-4.80081e-98
-1.26611e-92
2.89575e-100
-7.82158e-102
-2.98139e-97
-1.67122e-102
-3.69111e-106
3.95693e-99
-6.34254e-106
1.61443e-109
1.0023e-102
1.13723e-108
-5.57823e-112
-1.26663e-105
4.73966e-114
1.17448e-115
-6.91687e-109
9.88203e-116
7.4659e-118
3.14894e-112
-4.82477e-118
9.48604e-122
3.17701e-115
7.06352e-122
-1.78636e-125
-1.83656e-119
9.04913e-125
1.73711e-128
-6.53087e-122
1.54348e-128
5.19604e-131
-1.7721e-125
2.37546e-134
7.91979e-135
1.47263e-128
8.37545e-135
1.1459e-137
-1.87098e-131
1.55355e-137
-2.08267e-140
-2.2463e-134
-1.37328e-140
-8.39418e-144
2.3225e-137
-1.47182e-143
-1.60798e-147
2.08179e-140
1.58114e-149
9.79477e-151
-4.77104e-144
8.15228e-150
1.94162e-153
-7.68275e-147
-2.2824e-153
2.48462e-157
4.94439e-150
4.41722e-155
-1.79441e-158
1.13942e-152
-2.69776e-160
-5.71705e-156
1.45187e-09
-1.51711e-11
-4.88418e-11
1.43147e-09
-1.68613e-13
3.64326e-11
1.44969e-09
-8.65494e-11
-1.3937e-11
1.90601e-10
2.66218e-11
1.34396e-10
2.59868e-10
3.50765e-10
5.22163e-10
1.60086e-11
1.04535e-10
-5.68448e-11
1.17126e-10
-1.22082e-10
-1.52553e-10
-1.69274e-10
-1.34367e-10
5.7328e-10
-2.29413e-11
-3.43706e-15
1.42159e-09
1.9153e-11
1.42175e-09
1.61702e-20
-3.1034e-22
-1.42455e-21
5.25979e-21
2.79405e-20
2.77675e-19
-3.25598e-19
1.18396e-27
1.05687e-25
-1.02254e-25
1.45726e-30
1.45235e-29
1.099e-29
2.47465e-33
5.2511e-33
-7.23928e-33
1.19215e-37
1.50737e-36
-3.51193e-36
4.29166e-41
4.25718e-40
-2.98815e-39
1.9574e-44
1.13505e-43
-3.04692e-42
7.59454e-48
1.28257e-47
9.07954e-46
3.74837e-51
3.82815e-51
-8.99884e-49
4.01531e-54
4.35311e-54
-2.45555e-51
5.56063e-58
3.08885e-58
-3.07178e-55
1.17763e-60
4.89222e-61
-7.75171e-58
9.33055e-65
-6.12566e-65
-1.40228e-61
-4.42563e-67
1.99929e-68
3.63737e-64
2.16028e-71
2.56538e-71
-6.98432e-68
1.3827e-73
1.16414e-75
-6.88471e-71
2.7606e-78
-4.53046e-78
-3.10276e-74
2.48693e-82
-2.21811e-81
7.5955e-77
-3.85978e-83
-1.70787e-85
-7.3254e-81
7.08448e-86
-5.39119e-89
-8.78171e-83
6.4968e-92
-1.10793e-91
2.69636e-87
9.46998e-93
3.28042e-95
4.57068e-90
7.65013e-96
6.44551e-98
6.5106e-94
-1.17498e-99
7.76845e-102
4.40482e-96
2.38807e-103
-2.87191e-106
5.24784e-100
2.69367e-106
-9.14888e-109
-1.69995e-102
3.82416e-109
-1.33294e-113
-1.14373e-105
-6.90864e-113
1.34747e-115
1.68531e-109
-3.0358e-115
8.9078e-119
6.27377e-112
-4.78325e-119
8.45575e-122
-1.09842e-115
2.90631e-121
1.80069e-125
-4.69283e-118
1.48129e-124
7.91034e-129
-8.09748e-123
-1.31537e-127
-7.09084e-132
1.42452e-124
1.00153e-131
1.08026e-134
-3.7477e-128
2.91915e-134
2.5764e-138
-8.07275e-131
7.51473e-139
4.88385e-142
4.69537e-135
9.02691e-142
-5.16968e-145
6.77016e-138
-1.56776e-144
-8.26117e-148
6.59608e-141
-8.82061e-149
-7.48407e-151
-7.89169e-144
-3.08128e-150
-2.24878e-154
1.52809e-147
-5.82536e-155
-1.03122e-157
2.70342e-150
2.87425e-155
-4.04557e-159
-5.91334e-153
-3.65825e-161
-9.40377e-156
1.45913e-09
5.99093e-12
-7.68974e-11
1.43606e-09
2.40245e-11
-1.19177e-11
1.38461e-09
-6.27621e-11
2.61385e-11
1.46229e-10
1.08149e-10
2.13804e-10
2.34166e-10
3.08655e-10
4.17127e-10
8.55904e-11
1.62895e-10
-2.09088e-11
-8.0763e-11
4.27335e-11
2.37721e-11
1.6273e-10
1.60156e-11
-2.95851e-10
-2.51988e-16
1.67165e-15
-3.58729e-17
8.44039e-19
1.14865e-17
-2.02506e-17
-2.29779e-15
9.21931e-16
4.97331e-23
-1.40071e-26
-1.12651e-24
-4.21733e-22
-2.69056e-23
1.31709e-21
9.5996e-23
5.29582e-30
2.78536e-28
1.40149e-28
3.149e-32
2.44272e-34
-1.84355e-32
2.5917e-35
2.60397e-37
-4.21566e-35
8.48978e-40
6.95988e-41
1.71422e-38
2.73256e-43
1.75779e-44
2.36932e-42
1.13554e-46
3.56419e-48
7.92907e-45
4.73733e-50
4.71644e-52
-2.17148e-49
1.97628e-53
1.99254e-55
-3.30835e-51
8.20619e-57
-7.17951e-59
3.79292e-54
3.40858e-60
4.19345e-62
3.33597e-57
-3.25445e-65
1.11696e-65
1.65772e-60
5.77205e-67
4.15933e-69
1.53318e-63
2.38966e-70
6.16073e-72
6.34671e-67
9.8976e-74
3.1201e-75
2.92397e-70
6.15278e-77
3.79404e-79
-9.5865e-74
1.92228e-80
1.90149e-82
-4.8234e-77
-4.28929e-83
6.54361e-87
8.0855e-80
2.4431e-86
-1.21433e-88
-9.6648e-83
-5.54071e-89
7.00294e-93
1.53173e-85
-9.55692e-92
-7.07077e-96
1.62096e-88
3.7113e-95
2.26767e-99
-4.39225e-92
2.36309e-99
8.73344e-103
-6.29898e-95
-3.76543e-102
1.24561e-105
-6.94118e-101
-2.27324e-105
-1.83804e-108
3.20312e-102
-5.56133e-108
-4.15985e-111
2.73961e-105
-1.53001e-111
-4.96316e-115
6.21484e-108
6.18281e-115
3.28926e-117
1.48558e-111
6.12785e-118
-1.82727e-121
-2.18587e-114
7.83181e-121
2.93728e-124
-1.40689e-117
-2.05975e-125
2.48576e-128
1.64561e-120
-2.05108e-126
-2.54615e-130
2.65031e-123
3.50752e-130
5.40048e-134
-3.29357e-127
-4.04235e-134
-1.44456e-137
-1.19836e-130
-2.35852e-137
-2.0073e-140
1.37459e-133
-3.39653e-139
-8.04181e-144
2.75897e-136
-1.67615e-143
-7.01117e-147
1.6367e-140
-2.60053e-146
2.09149e-150
-5.39774e-143
3.90432e-149
-1.06902e-153
-3.80919e-146
-4.54966e-152
-2.14902e-155
5.09553e-149
1.48302e-154
-4.74981e-158
9.6138e-153
3.14227e-156
-4.21373e-160
-7.3595e-155
9.49218e-163
-1.02182e-157
1.43442e-09
-4.24784e-11
1.43937e-09
1.5538e-11
1.42541e-09
-8.76953e-11
2.46579e-10
-3.3206e-11
3.30515e-10
3.81461e-10
6.08788e-10
-9.67252e-12
-2.966e-11
1.15584e-10
4.46701e-11
3.9835e-11
6.60646e-11
3.39211e-11
5.1173e-11
-1.10962e-10
1.55722e-09
-2.21151e-10
-2.10651e-09
9.76962e-20
-9.47865e-22
4.55015e-21
-1.75467e-23
-2.98668e-21
2.23206e-21
-1.1083e-19
1.55702e-20
3.84952e-27
-4.95704e-27
-7.83466e-25
-2.80231e-27
-2.09317e-24
-9.23958e-26
2.51687e-29
-3.17605e-29
4.45252e-34
1.39898e-34
7.85588e-38
1.17396e-36
3.27193e-41
4.16754e-40
1.38388e-44
-6.21721e-43
5.84681e-48
-1.46082e-45
2.46473e-51
4.88597e-49
1.03874e-54
4.11836e-52
4.35808e-58
-1.62732e-55
1.82797e-61
4.72432e-59
7.63807e-65
1.35463e-61
3.18445e-68
7.68968e-65
1.25128e-71
-3.71171e-68
9.48131e-75
-8.85638e-71
2.24901e-78
-6.58433e-74
1.65587e-81
2.17701e-77
-4.12049e-83
3.59341e-80
-4.62719e-87
9.2349e-84
-5.80193e-90
-2.59856e-87
1.53209e-93
-1.38988e-89
3.56743e-96
-4.3745e-93
-4.45949e-100
6.05294e-97
-6.57506e-102
3.31413e-99
1.53809e-105
5.48566e-103
2.12744e-108
-1.33117e-105
7.08843e-113
5.5459e-109
-4.41709e-115
6.00027e-112
3.41243e-119
-2.82986e-116
-6.1921e-123
-3.63202e-119
3.68755e-125
5.25086e-122
-2.74887e-129
4.98937e-125
5.33556e-131
-3.1369e-128
9.31016e-135
-1.05045e-131
1.21108e-137
4.43476e-135
-2.25444e-141
3.72747e-138
2.03667e-145
3.58218e-141
1.16724e-147
-7.57786e-145
-8.23111e-151
-2.06821e-147
-3.03551e-153
3.97709e-150
2.52626e-155
2.27386e-154
3.06524e-157
-1.03484e-155
2.56193e-159
2.35265e-09
1.50112e-11
5.96718e-11
2.40738e-09
-3.77837e-11
-7.94866e-12
2.33209e-09
1.4169e-10
7.66206e-11
6.81735e-10
-1.66578e-10
5.19339e-11
5.57038e-10
7.00937e-10
6.42158e-10
2.70701e-10
7.67623e-12
-4.14743e-10
2.67183e-10
2.23059e-10
1.75876e-10
6.92226e-11
-9.72268e-11
3.30227e-10
1.42751e-13
1.09779e-11
6.9691e-11
3.81219e-20
-1.90168e-22
2.1054e-20
-1.31952e-22
2.31411e-22
-5.60564e-20
2.71461e-20
-4.43911e-20
7.08735e-25
3.49287e-25
5.9521e-27
-7.44384e-25
-2.80238e-23
3.05897e-24
-3.08403e-23
9.60772e-28
-4.61002e-27
-2.12804e-29
4.76002e-32
-2.95871e-31
7.44006e-34
1.03278e-35
-9.86404e-35
5.86882e-36
7.7875e-39
-3.35241e-38
-2.93522e-39
5.51661e-42
-1.11138e-41
1.03702e-42
3.85572e-45
-4.51035e-45
1.30291e-45
2.69427e-48
-1.48257e-48
7.30011e-49
1.89796e-51
-5.12183e-52
-1.9518e-52
1.31551e-54
-1.37898e-55
-5.24863e-56
9.19363e-58
-1.47747e-58
-2.01567e-58
6.47595e-61
-5.86934e-61
-4.88686e-61
4.46992e-64
-5.65906e-65
7.2795e-65
3.09763e-67
-5.64003e-68
-3.43204e-69
2.14227e-70
1.20732e-71
-3.26497e-71
1.49502e-73
3.1091e-74
6.66879e-75
1.03422e-76
3.19288e-78
-8.4403e-78
7.13843e-80
4.91358e-82
-2.43588e-80
4.91464e-83
-7.03609e-84
-6.21233e-84
3.37691e-86
1.41357e-87
1.92019e-86
2.31056e-89
4.16336e-90
1.83019e-90
1.57885e-92
2.78778e-93
-4.4391e-93
1.08064e-95
6.07666e-97
-6.94e-98
7.38506e-99
-6.47377e-100
-8.28783e-100
5.024e-102
3.89076e-103
-1.81863e-102
3.4225e-105
1.46627e-105
-3.50383e-106
2.32848e-108
9.94076e-110
6.43061e-109
1.57746e-111
-1.79433e-112
8.52599e-112
1.06564e-114
-1.93203e-115
-2.18591e-115
7.18206e-118
-6.27138e-119
-1.95233e-118
4.83609e-121
2.15826e-122
-1.39364e-121
3.24959e-124
4.30726e-125
-9.46654e-126
2.17764e-127
1.91409e-128
9.49703e-128
1.45532e-130
-3.25027e-132
3.24963e-131
9.72029e-134
-6.9815e-135
-2.26491e-134
6.48104e-137
-1.01367e-137
-9.38556e-138
4.31311e-140
-1.3591e-140
1.62668e-140
2.85295e-143
7.83126e-145
3.99217e-144
1.88759e-146
3.22551e-147
-4.4494e-147
1.2291e-149
7.57392e-151
-1.23599e-150
4.14353e-152
-1.26983e-154
7.42748e-153
6.95114e-153
1.14691e-155
-8.85775e-157
3.55575e-157
-3.70558e-158
2.37384e-09
2.59011e-11
3.10048e-11
2.40511e-09
-2.36553e-11
-1.52241e-11
2.39379e-09
1.06583e-10
2.80506e-11
6.79503e-10
-5.5348e-11
-3.56307e-11
5.00424e-10
7.0309e-10
4.84266e-10
4.30666e-11
1.73934e-11
5.83008e-10
1.10222e-10
-7.92816e-11
1.05795e-09
-2.36988e-10
-1.06682e-10
2.02412e-09
2.25926e-11
-2.53981e-09
-9.74147e-17
-3.2909e-19
-3.50703e-19
2.25535e-17
1.47342e-17
-1.17215e-19
5.6492e-17
-2.15717e-16
2.16828e-16
1.31399e-22
-2.82566e-21
4.10091e-24
1.76141e-21
-6.36321e-21
2.3804e-21
3.99127e-21
1.98811e-27
-2.19789e-24
6.2743e-29
7.87346e-31
-5.71065e-28
1.93356e-31
2.36235e-34
-2.69069e-31
-3.23453e-35
2.98682e-38
-1.07732e-34
4.63587e-38
2.9961e-41
-2.43384e-38
3.38372e-41
3.51386e-44
-5.54565e-42
-2.29409e-44
2.36949e-47
-1.45493e-45
2.00038e-47
1.59356e-50
-4.76429e-49
1.90263e-50
1.1269e-53
-3.83698e-52
-8.12879e-54
8.18469e-57
-4.77308e-55
-5.50857e-57
6.10016e-60
-1.16961e-57
3.4717e-60
3.82047e-63
4.33016e-62
6.85804e-64
2.66493e-66
9.31925e-65
-3.24725e-66
1.84975e-69
-4.44026e-68
9.32554e-71
1.28367e-72
9.25928e-72
1.54968e-72
8.88552e-76
2.03202e-74
3.03395e-76
6.13391e-79
-3.02324e-78
-3.40722e-79
4.23718e-82
7.15811e-81
2.45314e-82
2.92496e-85
5.27875e-84
1.63522e-85
2.01235e-88
-8.96863e-87
-6.90385e-89
1.42471e-91
-6.20404e-90
-1.57823e-92
9.5469e-95
-1.10572e-92
6.21103e-96
6.49788e-98
2.72059e-97
-5.05884e-98
4.44007e-101
-2.66807e-101
-2.23773e-101
3.02779e-104
3.89402e-104
2.76978e-104
2.06357e-107
2.22204e-106
2.22078e-107
1.40511e-110
-3.17777e-110
-1.17573e-110
9.5405e-114
-5.66387e-112
1.1413e-114
6.46576e-117
-1.40537e-115
-3.98115e-118
4.37988e-120
-4.71757e-119
2.38116e-121
2.95967e-123
-5.07863e-122
-2.7369e-124
1.99609e-126
-3.29296e-125
2.08567e-126
1.34263e-129
-1.74186e-128
-1.09441e-129
9.00823e-133
-9.02021e-132
-3.30389e-133
6.04824e-136
9.24248e-135
1.67216e-136
4.05883e-139
1.89723e-138
2.80139e-139
2.71524e-142
1.31533e-141
1.04204e-142
1.81023e-145
-5.13778e-145
2.26149e-146
1.20668e-148
-9.18114e-148
-5.67998e-149
1.89819e-151
7.39994e-151
-5.4458e-152
5.87595e-152
-2.30936e-154
1.07363e-154
4.56894e-157
2.31288e-157
2.37036e-09
4.19254e-11
6.74028e-11
2.38695e-09
5.74599e-12
2.96638e-11
2.39008e-09
1.07117e-10
-4.12229e-11
6.43092e-10
-2.88918e-11
-3.44604e-11
6.33027e-10
6.51768e-10
6.39835e-10
-9.30858e-11
-9.41727e-11
6.46158e-10
-1.96919e-11
2.07866e-10
1.10705e-09
-1.94265e-10
-2.37561e-10
-6.35379e-11
-7.17592e-11
-5.66054e-10
-1.17389e-13
-3.89934e-14
6.40408e-16
-3.75087e-16
2.56647e-14
-1.51077e-12
1.25137e-13
1.51455e-12
-1.44416e-15
-1.1738e-15
1.72078e-15
1.68687e-15
-5.41793e-22
-4.52166e-21
2.47284e-21
-8.616e-19
7.51815e-20
7.05778e-20
5.30606e-19
3.0454e-26
-1.00407e-24
-3.26624e-26
1.29608e-28
-5.12695e-29
8.90602e-30
1.3606e-31
-3.79564e-32
-6.6425e-33
2.01789e-35
-2.10235e-35
-4.30109e-36
1.22057e-38
-8.62707e-39
1.30245e-40
8.66894e-42
-2.62323e-42
3.25757e-42
6.07413e-45
-3.70664e-46
7.90064e-45
4.23655e-48
3.00188e-51
1.45205e-48
2.94809e-51
-1.21962e-52
-1.64765e-51
2.0475e-54
9.80137e-55
1.99901e-54
1.42184e-57
9.22267e-58
9.96904e-58
9.84899e-61
2.93768e-62
-1.8697e-61
6.80371e-64
-1.5038e-65
3.15641e-64
4.69604e-67
-3.30008e-68
3.68026e-67
3.23512e-70
-4.42105e-71
-6.08222e-72
2.22391e-73
-4.66937e-74
-4.90295e-74
1.52669e-76
-1.54013e-77
-1.27366e-77
1.04644e-79
1.24207e-80
-1.04417e-80
7.15923e-83
1.26983e-83
-3.66914e-84
4.89181e-86
-3.00667e-87
1.21836e-86
3.33678e-89
3.17267e-90
-3.32727e-90
2.26932e-92
1.04048e-92
-1.7824e-93
1.54302e-95
3.22408e-96
7.12124e-96
1.04933e-98
1.41305e-99
4.07157e-99
7.11222e-102
-3.81395e-103
3.86063e-102
4.80757e-105
-4.83065e-106
-8.47769e-106
3.24864e-108
4.17225e-110
-5.99898e-109
2.19196e-111
5.23969e-113
1.04364e-111
1.47491e-114
4.87846e-116
7.17025e-115
9.91126e-118
-5.68354e-120
-2.58038e-118
6.65173e-121
-4.87139e-122
7.39721e-123
4.45637e-124
-3.13091e-125
1.11725e-124
2.98124e-127
-2.55956e-128
-1.41065e-128
1.99026e-130
1.71191e-131
6.82018e-132
1.32699e-133
5.74061e-134
9.64571e-134
8.8428e-137
1.86532e-137
3.38582e-137
5.87757e-140
-5.76307e-141
-7.2842e-141
3.89571e-143
-1.53767e-145
-3.7181e-144
2.58004e-146
1.82071e-147
9.69717e-148
1.68236e-149
1.6498e-150
5.39737e-150
4.75526e-152
-1.48114e-153
1.74633e-152
-2.08793e-156
-1.72552e-156
2.38173e-09
2.46318e-11
9.08618e-11
2.42777e-09
5.6131e-12
3.08519e-12
2.44841e-09
8.50781e-11
-9.36689e-12
6.50932e-10
-5.42311e-11
-1.28806e-11
5.95859e-10
6.71753e-10
6.1522e-10
-1.32104e-10
-7.4848e-13
6.94112e-10
4.63713e-11
5.62238e-11
1.00122e-11
-1.17414e-11
-1.10123e-10
1.49171e-10
8.56966e-11
-1.17864e-10
-7.28384e-12
-2.43508e-13
5.87142e-15
1.7835e-14
9.25151e-14
4.23525e-14
2.66197e-19
2.12164e-20
3.04181e-21
-1.59579e-20
-5.65753e-19
8.40028e-20
1.47711e-19
9.19599e-27
1.28574e-23
4.39431e-26
3.19624e-29
-7.26858e-28
1.77064e-29
2.57927e-32
-5.53164e-31
6.1513e-33
6.69005e-36
1.42424e-34
3.20062e-36
4.35124e-39
-1.2886e-37
-1.10295e-39
3.111e-42
-5.93778e-41
-1.0135e-42
2.19801e-45
-3.40194e-44
8.14428e-46
1.54564e-48
-1.07334e-47
4.37252e-49
1.08701e-51
-7.91035e-51
4.3192e-52
7.6185e-55
-2.45682e-54
5.83534e-55
5.32384e-58
-1.93495e-57
-3.09326e-58
3.71589e-61
-3.40796e-60
-1.701e-61
2.58865e-64
3.67998e-64
5.95181e-66
1.80144e-67
-6.44121e-69
1.07159e-68
1.25081e-70
4.63533e-70
-7.48518e-71
8.67415e-74
1.04226e-72
1.90324e-74
6.01249e-77
7.33429e-76
7.28833e-77
4.15969e-80
-3.95055e-80
1.04597e-80
2.8668e-83
-1.63766e-82
-1.01116e-84
1.97484e-86
-1.73491e-86
1.10712e-86
1.35869e-89
2.52028e-89
-9.13272e-90
9.31382e-93
5.58945e-93
-2.42907e-93
6.38444e-96
-1.73586e-95
1.78093e-96
4.37882e-99
-2.72189e-99
1.77915e-99
2.99435e-102
1.16337e-101
1.00071e-102
2.04e-105
-2.14268e-105
-1.27839e-105
1.38928e-108
7.71339e-108
1.24061e-109
9.45465e-112
-3.70544e-111
8.86128e-112
6.41202e-115
-3.42578e-115
-2.98114e-116
4.34084e-118
8.70533e-118
-2.28544e-118
2.93674e-121
-6.1756e-121
-8.97608e-123
1.98358e-124
-1.09132e-123
8.35541e-125
1.33845e-127
2.25038e-127
3.3182e-128
9.01328e-131
4.19378e-131
1.42639e-131
6.04924e-134
-1.22459e-133
2.54027e-134
4.05541e-137
-1.75551e-136
6.48155e-138
2.71593e-140
2.36528e-140
-4.56598e-142
1.81487e-143
1.57588e-143
4.23477e-144
1.20975e-146
-1.21819e-146
3.53009e-147
7.90626e-150
-1.25244e-150
-1.06534e-150
-3.3864e-151
3.38055e-155
-1.46123e-153
5.51191e-156
-6.13806e-156
2.40622e-09
-4.12349e-12
7.85179e-11
2.41266e-09
-3.91255e-12
-4.5125e-11
2.45824e-09
3.89878e-11
4.78082e-11
5.16109e-10
1.77214e-11
9.19789e-11
6.88754e-10
5.9105e-10
6.69688e-10
2.76672e-11
-3.41155e-11
5.43745e-10
1.08338e-10
-1.40403e-10
1.10955e-10
-1.02802e-10
-1.87814e-10
3.45956e-10
8.57968e-11
-2.56904e-10
-3.83681e-09
-5.48864e-11
-1.132e-11
7.42845e-12
-4.35804e-11
3.09542e-14
7.73099e-19
1.97142e-20
1.48084e-20
1.89403e-17
-2.18115e-17
1.3901e-17
-1.25237e-17
-1.42061e-25
3.52687e-23
1.77962e-24
3.47569e-28
1.54087e-27
1.07702e-28
3.68377e-31
5.46877e-31
-2.19539e-31
9.42386e-35
1.48627e-34
2.00519e-34