/*--------------------------------*- C++ -*----------------------------------*\
| =========                 |                                                 |
| \\      /  F ield         | OpenFOAM: The Open Source CFD Toolbox           |
|  \\    /   O peration     | Version:  5.0                                   |
|   \\  /    A nd           | Web:      www.OpenFOAM.org                      |
|    \\/     M anipulation  |                                                 |
\*---------------------------------------------------------------------------*/
FoamFile
{
    version     2.0;
    format      ascii;
    class       volVectorField;
    location    "0.2";
    object      ddt0(rho,U);
}
// * * * * * * * * * * * * * * * * * * * * * * * * * * * * * * * * * * * * * //

dimensions      [1 -2 -2 0 0 0 0];

internalField   nonuniform List<vector> 
4398
(
(0.195556 -1.57879 0.247132)
(6.6386 -1.63106 -0.0459343)
(8.45837 -2.07164 -0.855057)
(11.0049 -5.83506 2.24175)
(7.4588 -4.49378 1.62405)
(-95.7126 6.9585 -21.0778)
(0.655564 8.51401 0.655722)
(-6.03224 6.84647 0.38955)
(-9.67567 3.50408 0.0161766)
(-12.3336 4.01318 -0.00385836)
(-13.9607 2.76878 0.229911)
(-14.944 2.33885 0.155764)
(-12.1012 4.15991 -0.242857)
(-9.37268 1.7221 0.0649717)
(-8.03182 0.15193 0.00766819)
(-6.22986 0.63022 -0.416675)
(-3.77205 0.0702518 0.00626585)
(-0.262248 1.34536 0.100979)
(2.32921 2.92814 0.101188)
(2.75555 1.32332 -0.187705)
(2.72354 1.50163 -0.0416434)
(5.82187 0.668736 0.198233)
(5.23324 -0.9189 -0.003877)
(3.97791 -0.560274 -0.175544)
(6.51578 -2.66918 0.0890238)
(6.35917 -3.32431 0.0447461)
(3.19062 -1.58854 -0.0763608)
(1.92224 0.137994 0.00013004)
(5.11648 0.560347 -0.258108)
(5.64137 0.511718 -0.0319703)
(4.86802 2.57971 0.154824)
(8.65038 2.68666 0.177477)
(8.20498 -0.292427 0.246071)
(2.21676 -1.57276 -0.111447)
(2.08333 -1.01781 -0.00494458)
(10.6173 -0.933067 -0.0374089)
(19.459 -2.08412 -0.157597)
(21.9344 -2.77721 0.102604)
(19.974 -1.83972 0.164194)
(19.7898 -0.586186 -0.150468)
(25.3827 0.615196 0.00160862)
(28.8383 1.64732 0.0695324)
(23.2227 2.49561 0.267293)
(19.9879 2.38936 -0.145967)
(26.2026 0.504242 -0.0416033)
(30.1877 -1.51961 0.126717)
(27.1424 -1.6498 -0.00367386)
(26.2389 -1.07812 -0.1341)
(27.7533 -1.03117 0.0300172)
(25.6822 -0.455263 0.0234446)
(-0.915145 -0.270939 0.636097)
(0.782029 -1.1964 -0.908297)
(-2.59926 -13.5043 0.531784)
(-3.80949 -14.3165 -0.126782)
(-7.43413 -24.7477 4.13186)
(-126.789 -23.3327 26.3341)
(6.99961 12.8282 0.167637)
(-8.22878 13.5213 -0.0803196)
(-11.8035 10.3232 -0.00569311)
(-13.247 5.9654 -0.0030068)
(-15.5676 5.46113 0.000716449)
(-13.9839 2.26266 0.00100531)
(-12.0634 2.30198 -0.0021715)
(-12.9444 1.93793 -0.0016259)
(-9.13563 1.35337 4.73136e-06)
(-6.64113 0.217915 -0.29176)
(-3.0757 1.77245 0.217215)
(2.51708 4.21335 0.241089)
(1.09008 4.29063 -0.115395)
(0.474461 0.488266 -0.003736)
(2.38277 0.818111 0.0938121)
(4.03998 0.488421 0.0897874)
(5.14139 -1.79428 -0.16952)
(3.64075 -0.571094 -0.220391)
(4.26171 -0.947278 0.135605)
(6.22638 -2.24869 -0.136713)
(5.53941 -2.40065 -0.139362)
(4.58869 0.840753 0.00223124)
(5.25615 2.44808 0.0728894)
(6.25684 0.608353 0.103904)
(6.12452 1.97043 0.122999)
(5.30897 1.0429 0.116134)
(4.42506 -3.34384 -0.221794)
(3.64784 -3.21106 -0.116857)
(4.83306 0.650245 0.00933796)
(10.153 2.088 -0.0185979)
(16.9863 -0.514513 -0.0533162)
(20.9261 -2.62538 0.0101943)
(21.2471 -2.31251 -0.14083)
(21.9891 -0.664688 -0.451884)
(26.6041 1.26032 0.0189834)
(29.2195 0.468999 0.15413)
(24.1791 -0.206597 -0.0715227)
(19.7937 1.51209 -0.249356)
(23.4711 1.56601 0.0108359)
(28.1128 -1.39861 1.73508e-05)
(27.9871 -2.05913 -0.10398)
(27.4696 -0.217676 0.14844)
(28.0515 0.472064 0.0726678)
(25.8079 -0.0941844 -0.0102692)
(-0.962222 -7.02199 -0.00202335)
(-9.91538 -6.27427 -0.0652393)
(-7.9267 -10.0306 0.332955)
(-10.6241 -6.82197 -0.970757)
(-13.7789 -10.1706 -5.25437)
(2.87781 17.7605 -27.4015)
(-9.08014 42.5429 1.60325)
(-9.60909 17.1959 0.891822)
(-19.1038 11.5429 0.590864)
(-18.4047 8.09592 -0.0211691)
(-18.5914 5.23836 -0.00828715)
(-18.8885 4.66671 -0.00491123)
(-12.5077 0.14036 -0.00213018)
(-10.5587 -0.0601668 -0.00248339)
(-10.1828 1.23612 -0.00120153)
(-5.70417 0.0672119 0.222806)
(1.22177 1.78214 0.136088)
(2.881 1.93472 -0.14002)
(-2.33377 -0.478929 0.360452)
(-1.58191 0.244086 0.00275869)
(2.72234 1.12358 -0.168297)
(2.55388 0.238109 -0.130242)
(3.91226 -0.779803 -0.0378332)
(5.0336 -0.621946 0.243948)
(4.41714 1.36252 -0.00444265)
(4.54332 0.238183 -0.08314)
(7.05587 -1.35574 0.156498)
(7.98077 1.26538 -0.00803325)
(4.82118 0.884093 0.24929)
(5.04784 -0.421376 0.181993)
(5.40889 0.0979033 -0.0787693)
(2.00428 -1.15328 -0.15755)
(2.89405 -2.79395 -0.282581)
(7.2139 -1.79166 0.0742836)
(8.7043 1.62316 0.509875)
(9.15674 3.57734 0.0471854)
(13.5679 0.737436 -0.221458)
(19.6897 -1.5165 0.00834272)
(22.4264 -0.852936 -0.00290716)
(24.2559 0.802755 -0.0991093)
(26.7963 1.54827 0.135589)
(27.0047 -1.24395 0.155651)
(24.53 -3.41031 -0.200769)
(22.2019 -0.655383 -0.0690579)
(22.5607 1.79749 0.0969398)
(25.6592 -0.0495614 -0.0449927)
(28.6217 -0.903084 -0.153276)
(29.4016 0.939725 0.136337)
(27.907 1.18742 0.0378825)
(25.2105 -0.381307 -0.0245532)
(0.0303989 -5.92039 -0.553004)
(-2.98952 -7.62353 -0.210318)
(-3.28997 0.00113809 -0.0476304)
(7.35383 -7.87036 1.89859)
(-4.2329 12.4273 -1.11156)
(-43.7461 -15.4142 -8.54001)
(29.2724 85.9776 -1.21686)
(-10.3486 24.0136 1.22115)
(-23.183 9.23537 -0.106353)
(-21.1284 6.38803 -0.414773)
(-19.8513 2.53135 -0.0021393)
(-20.3608 2.18607 -0.00352857)
(-17.9663 1.47572 -4.93385e-05)
(-11.5725 -0.378663 0.000715603)
(-8.97922 1.1948 0.000570339)
(-5.95557 1.60626 0.000849832)
(-0.743421 1.56325 -0.00924339)
(-0.311764 -1.41877 -0.142579)
(-1.01954 -3.9441 -0.176118)
(2.47815 0.449535 -0.151755)
(2.37284 1.31203 0.174436)
(1.66006 -0.0751912 0.000306193)
(4.0669 0.585533 0.0893566)
(6.31972 0.347551 0.353065)
(5.3334 2.01783 -0.242905)
(2.82826 2.37067 -0.144389)
(6.82812 1.1468 0.128062)
(7.38423 0.348029 0.0701062)
(3.14574 -1.96628 0.198921)
(5.27551 -1.78998 -0.457293)
(5.20655 -1.18668 -0.0649513)
(1.69291 -1.69861 0.108571)
(3.62964 -0.711872 -0.108732)
(9.17173 -0.159847 0.0540695)
(11.5426 1.27456 0.053618)
(9.04053 2.94169 -0.363872)
(10.6197 1.89908 -0.091099)
(18.9416 0.326351 0.0403105)
(24.1473 1.11587 0.113906)
(24.9891 2.12745 0.23836)
(24.0418 0.436138 0.0946193)
(23.0222 -3.22091 -0.120739)
(24.9204 -4.89686 -0.207598)
(26.3025 -2.33607 0.108967)
(24.2232 0.599566 0.0494147)
(24.7384 0.812594 -0.137928)
(29.2268 1.37201 -0.0924685)
(30.0808 2.84597 0.256371)
(26.3979 1.61241 -0.00696068)
(24.8032 -0.475368 -0.0160292)
(-3.05769 0.977368 -0.615212)
(-2.48392 -3.55466 0.279069)
(-8.24128 -2.78188 0.889379)
(-10.7204 -10.4099 0.540051)
(-12.5636 -50.1443 4.71281)
(52.0309 4.50803 44.0728)
(63.851 31.0796 122.394)
(-51.9144 -0.181096 0.287721)
(-41.0611 -2.01321 -0.302325)
(-26.7881 -1.67661 0.577998)
(-23.8385 -1.39429 0.12179)
(-20.207 -2.64421 -0.237744)
(-15.7139 0.0151011 -0.175069)
(-10.9051 0.182774 0.000753335)
(-7.70282 1.90524 0.192471)
(-5.24363 1.8449 0.133208)
(-2.56215 2.16743 -0.00987292)
(-4.00142 -0.419023 0.0047408)
(0.0112381 -2.14472 -0.188098)
(4.9848 -0.615237 0.0493442)
(2.06339 0.231891 -0.00491789)
(1.64788 -0.321873 -0.179233)
(4.43941 0.714156 -0.172456)
(6.82625 1.45316 0.172146)
(6.94467 1.42545 -0.101954)
(3.45254 2.99772 0.108508)
(4.52774 2.26789 0.365536)
(4.08718 -0.945199 0.0160387)
(2.15148 -2.03595 -0.169842)
(6.02229 -1.58206 -0.12178)
(5.52063 -1.21697 0.175502)
(2.59849 -1.24248 0.0555727)
(4.81622 -0.517894 -0.375769)
(9.69737 0.557406 9.47685e-05)
(12.5812 0.951675 0.038347)
(9.93363 1.31857 -0.000643261)
(10.2973 2.38118 0.193393)
(18.7133 1.98297 0.00353272)
(24.6782 1.21075 -0.00526684)
(23.4031 1.03408 0.0983071)
(20.109 -1.13387 -0.0834732)
(20.341 -3.74086 -0.168727)
(25.6403 -4.33949 0.111059)
(29.0724 -2.67821 0.126306)
(26.4934 -1.0234 -0.0603961)
(26.6251 0.665908 0.00245336)
(31.1644 2.60944 0.184164)
(29.699 3.90487 0.156003)
(23.7544 2.1316 -0.0661796)
(23.7927 0.186433 -0.134745)
(-5.61108 0.45845 1.52872)
(-7.66455 0.855945 0.438582)
(-11.8447 -2.68469 -0.178727)
(-39.9832 3.1529 -1.65894)
(-38.7956 10.0491 -10.6279)
(-71.7377 -3.6893 8.70864)
(70.8401 3.2392 -3.23532)
(-61.9366 -20.8735 -1.70836)
(-25.1849 -10.2036 -0.194561)
(-20.3432 -7.54542 0.0746726)
(-21.0584 -3.3192 -0.128343)
(-18.5922 -1.46366 -0.184485)
(-14.4349 0.78166 0.22144)
(-9.20736 1.28001 0.00271313)
(-6.90327 0.467944 -0.143896)
(-5.62701 0.649379 -0.0767243)
(-3.57653 0.578742 0.00160012)
(-5.70165 0.782318 0.123023)
(-1.26111 -0.230984 -0.0766366)
(5.44701 -2.1275 -0.14569)
(2.73797 -1.87496 -0.00970205)
(2.26483 -0.519908 -0.373359)
(6.28551 0.298103 -0.00513198)
(7.208 2.0712 0.300027)
(7.26515 1.35143 0.170323)
(3.87772 1.46829 -0.0144461)
(1.89599 1.55872 -0.124933)
(2.00671 -1.081 -0.114879)
(2.35121 -0.647335 -0.00293623)
(6.29824 -0.0378146 0.122164)
(5.63007 -0.644501 0.134866)
(2.56756 -1.26021 -0.196654)
(5.87961 -0.863234 -0.126881)
(11.0073 1.20269 0.0287627)
(12.4934 0.988634 0.117896)
(10.8274 0.00324264 -0.0536741)
(11.4479 1.83196 0.0015893)
(17.4777 2.44511 0.000574438)
(22.9616 0.258381 -0.000420307)
(22.056 -1.09309 0.20304)
(18.0728 -1.75908 -0.142972)
(19.0181 -2.33692 -0.173666)
(26.2514 -1.87739 0.0921567)
(30.4481 -1.46127 0.0291017)
(28.404 -1.32266 -0.102136)
(29.2798 0.454311 0.00596289)
(33.2745 2.33671 0.323057)
(29.4805 2.45267 0.109228)
(21.75 1.79178 -0.207112)
(21.9072 1.12966 -0.0557477)
(-2.56849 -0.62191 0.171606)
(-6.44708 5.65288 -1.38107)
(-5.3694 3.32754 -0.629014)
(-0.323261 7.45544 1.41146)
(5.11584 30.4246 -1.05912)
(14.284 38.4862 -9.43401)
(-7.46189 -29.4538 3.09825)
(-27.0199 -13.2793 -0.826594)
(-24.3169 -7.12794 0.15693)
(-18.1748 -6.93739 0.0118051)
(-16.2371 -4.56583 -0.00901508)
(-15.0799 -2.53336 -0.00242647)
(-12.2863 -0.107262 0.001953)
(-11.2986 0.0729131 -0.000763275)
(-8.48965 -3.3767 0.00129473)
(-5.10521 -0.432624 0.000109046)
(-2.39568 -1.26736 -0.00300438)
(-5.01491 -0.727152 -0.147346)
(-3.62664 1.25084 -0.107024)
(2.93356 -1.8751 0.0556938)
(4.07525 -2.46343 0.0494893)
(4.36448 -0.588217 0.00239313)
(7.67991 -0.309376 -0.00544581)
(8.13983 1.046 0.00273973)
(6.19169 0.690545 -0.184824)
(3.71114 0.196822 -0.101693)
(1.33777 0.65688 -0.0254101)
(1.33294 -0.797178 0.206999)
(3.45542 1.0871 0.138702)
(6.02479 1.31673 0.0525703)
(3.99336 -0.851479 -0.0221167)
(2.32686 -1.1345 -0.125348)
(7.89652 0.231486 -0.00392507)
(12.0094 1.66242 0.00884575)
(11.0808 0.427845 -0.0082664)
(10.9909 -1.44954 -0.0401998)
(13.348 0.701766 -0.000226443)
(16.7427 2.44376 -0.00421602)
(20.256 0.447651 -0.0140326)
(20.8816 -1.80608 0.18194)
(18.5542 -1.36771 -0.0867706)
(20.1947 0.41326 -0.169008)
(26.7355 1.27068 0.0718309)
(29.7661 0.229122 0.115173)
(28.8903 -0.468147 -0.078245)
(31.1999 0.458795 0.0063299)
(33.6605 0.770155 0.282121)
(29.0175 -0.544335 0.0225201)
(22.1012 0.441519 -0.0845459)
(20.1386 1.38596 0.0935668)
(2.24092 8.66683 -0.685061)
(-2.76425 8.02616 0.253799)
(-9.58462 8.26067 1.17603)
(1.76253 10.8988 0.1319)
(-10.8055 -1.60384 4.81977)
(-9.36822 -39.9846 0.731109)
(57.918 -31.2673 -27.8814)
(-16.4984 -16.0254 0.312682)
(-17.2827 -8.18051 0.395142)
(-17.1442 -3.78596 -0.00807456)
(-15.5558 -3.66479 -0.000650307)
(-13.0195 -1.70169 0.00210433)
(-11.1799 -2.19097 -0.00100819)
(-13.2988 -1.86569 -0.00140108)
(-7.52768 -2.04651 0.00212198)
(-2.99523 -0.552721 -8.58884e-05)
(-3.94342 -3.47043 0.142387)
(-2.5518 -3.21205 -0.226884)
(-2.70245 -0.0624144 0.243161)
(0.808214 -0.132402 -0.0104849)
(4.35016 -1.46425 -0.0927313)
(4.95647 -0.765972 0.0965483)
(8.33018 0.502367 0.0732971)
(8.45696 -0.19881 0.00204131)
(6.20425 0.0760963 -0.0944112)
(3.83706 0.417223 0.0974409)
(0.651218 -0.137328 0.0931789)
(2.54857 -0.267182 -0.130995)
(4.99206 0.869689 -0.0445243)
(3.87258 1.00288 0.108935)
(2.56908 -1.37908 -0.122832)
(3.92339 -0.239741 -0.119332)
(9.37565 2.16737 0.0560676)
(11.2498 1.42995 -0.0132514)
(8.60282 -0.796704 -0.000974166)
(11.1744 -1.98963 0.0219586)
(16.3139 -0.292841 0.0435273)
(17.1555 1.70994 0.0146864)
(17.6487 1.00884 0.00262745)
(19.7899 -0.795492 -0.0507238)
(20.8482 -0.381878 -0.0633807)
(22.3143 2.35232 0.00465041)
(26.0186 3.1549 0.15733)
(28.2745 0.825776 0.0144455)
(28.6924 -0.171263 -0.0530798)
(30.8265 0.581671 0.00149263)
(32.0188 -0.783576 0.0154921)
(29.0722 -2.7134 -0.0217474)
(24.1629 -1.42702 0.0862265)
(19.6182 0.467703 0.138071)
(-3.36595 8.24962 0.911319)
(-6.95274 5.79839 -0.671306)
(-1.76643 11.5881 -1.65614)
(-12.8447 15.616 -0.366388)
(-35.9605 4.29002 4.81817)
(-24.8698 13.3097 -1.53353)
(12.6789 -26.7085 1.45941)
(0.0739402 -10.7189 0.264772)
(-9.02544 -5.90507 0.307382)
(-12.5406 -3.49511 -0.00203554)
(-13.6325 -2.04703 0.00154838)
(-13.2421 -1.82799 -0.000656196)
(-12.4911 -4.20811 -0.00186458)
(-11.1191 -1.91762 0.0013133)
(-6.84629 0.0834085 -0.118352)
(-6.89036 -2.10971 0.215914)
(-5.71583 -2.75246 0.384006)
(-0.749956 -2.13391 -0.615045)
(0.219337 -1.55534 0.0775575)
(1.17962 0.92293 0.165877)
(3.28613 -0.39367 -0.0688445)
(6.82333 0.00324455 0.0924262)
(8.38693 1.29392 0.0263557)
(7.60912 -1.31695 -0.00140957)
(6.96242 -0.809335 -0.0280774)
(3.44394 -0.108411 0.180588)
(0.483643 0.019504 -0.216006)
(2.59376 0.339 -0.110179)
(5.04198 -0.495583 0.0821689)
(3.21043 0.174989 0.060564)
(2.44408 -0.609167 -0.0800794)
(6.76116 0.843594 -0.0822698)
(9.97959 3.37278 0.386916)
(8.30283 1.1446 0.0397672)
(6.80814 -1.98487 -0.17589)
(11.6245 -2.51329 0.100233)
(17.9733 -1.73626 0.0163047)
(18.367 -0.133023 -0.0233103)
(17.1231 1.03426 -0.0358739)
(19.146 0.55543 -0.0709915)
(22.4913 0.338112 0.0750455)
(24.6128 2.92423 0.0526696)
(24.8232 3.98351 -0.0546567)
(25.6095 0.715114 -0.148423)
(28.5865 -0.81018 0.00831342)
(30.4313 0.444466 0.0695833)
(29.5407 -0.826704 -0.0659312)
(28.2163 -3.22214 -0.00811475)
(26.0775 -2.72938 0.0801979)
(21.334 -0.73582 -0.00611743)
(-0.832503 -2.9298 -0.652987)
(1.42081 -0.0712257 0.330906)
(2.68269 7.95867 1.97087)
(9.59433 8.10746 -0.191986)
(-40.8749 33.9487 2.53597)
(-53.0314 77.1865 -6.80312)
(10.8448 5.32633 0.962913)
(-0.680664 -0.500205 0.326805)
(-8.26583 -1.17511 0.029538)
(-12.3259 -1.02207 0.000688957)
(-13.4755 -1.00848 0.0681927)
(-15.725 -1.28338 -0.157744)
(-11.2868 -2.36839 -0.175314)
(-7.93528 -0.973591 0.0837108)
(-7.77312 -0.969605 -0.0181662)
(-6.5387 -1.92083 0.40501)
(-3.97204 -0.444012 -0.0952414)
(-1.05546 -0.364844 -0.117759)
(1.12103 -0.053128 0.0735199)
(2.25574 1.3221 -0.0842246)
(3.20301 1.20907 -0.300445)
(7.06717 0.87265 -0.147982)
(6.67548 0.408276 0.0209319)
(5.83165 -1.64884 0.0234229)
(7.71537 -2.49807 0.151718)
(4.87281 -2.00749 0.11972)
(1.21126 -0.167539 -0.0739494)
(1.90333 0.159401 -0.00150138)
(4.78864 -0.704159 0.0759342)
(3.72879 0.216556 -0.0630053)
(3.40731 1.23982 -0.273315)
(8.90204 2.15566 -0.00215639)
(9.74644 2.75157 0.233341)
(4.55232 0.738275 -0.120642)
(4.03414 -2.11673 -0.117774)
(11.4867 -3.0433 0.226838)
(19.2906 -2.92369 0.173297)
(20.6188 -1.85602 0.00440168)
(18.5082 -0.0705768 0.126964)
(18.9206 0.425825 0.0401226)
(23.8129 0.444504 0.0172788)
(26.8695 2.73651 0.00350922)
(23.2525 3.82594 -0.0897008)
(22.2845 1.45947 -0.107747)
(28.3571 -0.671648 0.0527783)
(30.8029 -0.449966 0.170181)
(27.4342 -0.866024 -0.153246)
(26.6968 -2.36757 -0.0447209)
(27.2716 -2.44923 0.0720338)
(23.9491 -1.02781 -0.000793124)
(0.0129002 -1.45506 0.519553)
(6.8683 -1.56144 0.351127)
(8.06077 -2.20509 -1.87564)
(12.6526 -5.16998 3.41477)
(-2.4415 -8.09833 -1.03698)
(-79.6407 0.580723 -71.3023)
(1.9517 8.89181 -0.252037)
(-6.54678 6.93076 0.695945)
(-9.97647 3.68939 -0.000523243)
(-12.5123 4.19184 -0.00226251)
(-14.0852 2.90879 0.345918)
(-15.0764 2.47435 0.37693)
(-12.1976 4.27587 -0.390023)
(-9.46128 1.78425 0.123113)
(-8.16835 0.173565 0.0071159)
(-6.28652 0.587226 -0.707642)
(-3.82441 0.0737458 0.00460635)
(-0.274138 1.25441 0.28496)
(2.36735 2.92354 0.387561)
(2.75981 1.38715 -0.48898)
(2.7632 1.59178 -0.167264)
(5.78731 0.751368 0.30115)
(5.10583 -0.884168 -0.011102)
(3.95866 -0.484804 -0.290179)
(6.61235 -2.57235 0.202826)
(6.34973 -3.3095 0.18059)
(3.15675 -1.58094 -0.168119)
(1.89574 0.0957741 0.000122581)
(5.13162 0.387562 -0.424016)
(5.74345 0.385225 -0.145907)
(4.91613 2.44125 0.298201)
(8.68881 2.56973 0.38402)
(8.23624 -0.33424 0.339383)
(2.15628 -1.53264 -0.175829)
(2.00116 -1.02292 -0.00996674)
(10.584 -0.964054 -0.0607588)
(19.4533 -2.12931 -0.200482)
(21.9062 -2.73945 0.204294)
(19.913 -1.76382 0.287238)
(19.8093 -0.517655 -0.336502)
(25.4299 0.695364 0.00260396)
(28.8712 1.69993 0.140684)
(23.2263 2.45443 0.355088)
(19.9525 2.31766 -0.269948)
(26.1664 0.509782 -0.0488076)
(30.165 -1.52016 0.191639)
(27.1798 -1.64411 -0.0135018)
(26.2798 -1.10276 -0.487839)
(27.7271 -1.07723 0.0685794)
(25.5612 -0.483382 0.0532287)
(-1.06311 -0.32089 1.33821)
(0.971952 -1.09066 -2.36769)
(-2.54398 -13.6247 0.420187)
(-2.9772 -13.9242 1.42802)
(-11.8775 -26.0754 3.58208)
(-118.805 -19.7858 74.7492)
(8.1116 13.0112 -2.53908)
(-8.27067 12.9046 -0.566361)
(-11.9674 10.3618 -0.0583339)
(-13.4512 6.01869 -0.00210037)
(-15.7361 5.51245 -0.00346311)
(-14.1188 2.28968 -0.00179551)
(-12.1714 2.33931 -0.00291049)
(-13.0374 1.9528 -0.0049758)
(-9.24247 1.40499 -0.00270314)
(-6.70213 0.342517 -0.561808)
(-3.16402 1.91074 0.534219)
(2.48381 4.46781 0.333345)
(1.20974 4.59874 -0.274679)
(0.551084 0.62365 -0.00346097)
(2.37052 0.89353 0.239979)
(3.9699 0.533997 0.183871)
(5.12287 -1.71599 -0.316262)
(3.71069 -0.386325 -0.442871)
(4.23259 -0.8124 0.369142)
(6.14622 -2.19854 -0.242548)
(5.47899 -2.31709 -0.282397)
(4.42759 0.903395 0.00167803)
(5.18802 2.5603 0.0680645)
(6.29676 0.630802 0.251498)
(6.13159 1.90515 0.201628)
(5.34383 0.980252 0.237647)
(4.51273 -3.43413 -0.587693)
(3.70575 -3.31471 -0.208638)
(4.80844 0.632546 0.065736)
(10.1179 2.06334 0.0316969)
(17.012 -0.53419 -0.0900328)
(20.9868 -2.62679 0.0281898)
(21.2454 -2.27423 -0.249287)
(22 -0.589182 -0.822329)
(26.6312 1.30478 0.036162)
(29.1231 0.474858 0.325745)
(24.0444 -0.250995 -0.301503)
(19.7999 1.47492 -0.447317)
(23.5432 1.55602 0.0163754)
(28.1158 -1.37532 0.003685)
(27.948 -2.05737 -0.336827)
(27.4345 -0.225014 0.227614)
(28.0232 0.427727 0.197453)
(25.8055 -0.137002 -0.0225812)
(-0.960436 -7.18131 -0.240158)
(-9.77208 -6.30754 -0.695344)
(-7.95663 -10.2678 1.53207)
(-10.2254 -6.85365 -1.40734)
(-13.076 -7.59035 -9.22257)
(-10.5428 5.23823 35.4608)
(-18.7797 36.2423 -13.4162)
(-6.38064 18.8731 1.57331)
(-18.5367 12.2037 1.68175)
(-18.554 8.31544 -0.00368354)
(-18.74 5.30068 -0.00748081)
(-19.0325 4.65225 -0.00516065)
(-12.6155 0.112632 -0.0031294)
(-10.6273 -0.0814647 -0.00354945)
(-10.181 1.23497 -0.00216713)
(-5.65128 0.111947 0.451204)
(1.332 1.82656 0.345293)
(3.081 2.04681 -0.443725)
(-2.44417 -0.516403 0.471846)
(-1.86887 0.234727 -0.00263929)
(2.64967 1.15284 -0.48885)
(2.52312 0.295113 -0.189612)
(3.95941 -0.635987 -0.0670729)
(5.08597 -0.543795 0.521219)
(4.34573 1.28514 0.0467417)
(4.47001 0.201323 -0.105865)
(7.03725 -1.35475 0.499377)
(7.9897 1.29395 -0.00696514)
(4.78584 1.06015 0.398362)
(4.9274 -0.321707 0.31255)
(5.34994 0.219376 -0.17046)
(2.01068 -1.03965 -0.547549)
(2.873 -2.74794 -0.496565)
(7.24409 -1.79048 0.126448)
(8.7211 1.62447 0.80809)
(9.12071 3.55588 0.15611)
(13.591 0.73649 -0.356359)
(19.7336 -1.54842 0.0194681)
(22.4615 -0.890369 0.0280376)
(24.2832 0.781994 -0.161378)
(26.7566 1.50155 0.370478)
(26.9266 -1.29166 0.485642)
(24.4794 -3.3716 -0.667121)
(22.2095 -0.562611 -0.150272)
(22.5998 1.78701 0.212045)
(25.6506 -0.0974608 -0.11482)
(28.6204 -0.932272 -0.347982)
(29.3843 0.975964 0.235821)
(27.836 1.19794 0.0633386)
(25.1986 -0.371056 -0.0522617)
(0.0614527 -6.01605 -1.01592)
(-2.86309 -7.68679 -0.369987)
(-3.21806 -0.251279 0.072458)
(7.35489 -7.87257 3.19816)
(-5.65114 11.1152 -6.59011)
(-60.8784 -43.8377 -16.5716)
(53.3266 163.653 -11.4448)
(-6.1017 30.4425 2.5198)
(-25.1446 9.70366 0.0775217)
(-22.0649 6.34264 -0.748091)
(-20.3016 2.3375 0.00192629)
(-20.6017 1.99449 -0.0102893)
(-18.0791 1.35118 -0.00553687)
(-11.6301 -0.453563 -0.00150145)
(-9.00236 1.16425 -0.000175147)
(-5.95872 1.5412 -0.00236637)
(-0.74714 1.47414 0.0636775)
(-0.448278 -1.54379 -0.265641)
(-1.05181 -4.16889 -0.232293)
(2.63765 0.45264 -0.270568)
(2.44312 1.35329 0.370984)
(1.73263 -0.0159821 0.00175613)
(4.07427 0.616423 0.252208)
(6.11315 0.347385 0.597263)
(5.16 1.9616 -0.44502)
(2.84546 2.3457 -0.245355)
(6.84933 1.17939 0.326766)
(7.44244 0.383135 0.0966022)
(3.16684 -1.95153 0.301893)
(5.24764 -1.7236 -0.695784)
(5.23165 -1.02458 -0.1197)
(1.6341 -1.56765 0.260807)
(3.57719 -0.660952 -0.115524)
(9.17447 -0.0767534 0.0978694)
(11.4906 1.34143 0.186499)
(9.00314 3.02075 -0.725482)
(10.633 1.98936 -0.215688)
(18.9568 0.3513 0.103537)
(24.1596 1.09149 0.23247)
(24.9888 2.07805 0.416818)
(24.0354 0.36766 0.194796)
(23.0327 -3.24061 -0.256567)
(24.9614 -4.82803 -0.477923)
(26.2476 -2.27155 0.238943)
(24.1196 0.595574 0.120158)
(24.7177 0.787786 -0.26385)
(29.2924 1.37971 -0.102506)
(30.0948 2.80307 0.582525)
(26.337 1.60943 -0.0195667)
(24.7749 -0.462477 -0.0350111)
(-2.96478 1.05582 -0.879037)
(-2.48102 -3.58723 0.484218)
(-8.19769 -3.05378 1.27796)
(-11.0145 -10.6854 0.918719)
(-17.6674 -50.9944 -5.2526)
(13.9647 -64.4241 59.4262)
(539.979 275.713 135.935)
(-43.3584 -5.56041 -1.05257)
(-48.4426 -4.9199 -0.155142)
(-27.7483 -2.86282 0.673591)
(-24.1601 -1.99337 0.242417)
(-20.2592 -2.95488 -1.04187)
(-15.6736 -0.154884 -0.285307)
(-10.855 0.0756207 -0.00211005)
(-7.68809 1.82172 0.427467)
(-5.26391 1.80169 0.302051)
(-2.52694 2.13223 -0.0571812)
(-3.97117 -0.480344 0.00240461)
(0.0600611 -2.07195 -0.30579)
(5.02992 -0.592913 0.130185)
(2.06042 0.324381 -0.0009092)
(1.6036 -0.372161 -0.631691)
(4.41169 0.635991 -0.323884)
(6.76899 1.44853 0.374464)
(6.84187 1.55359 -0.224434)
(3.49051 3.1407 0.159721)
(4.58536 2.33918 0.526617)
(4.07477 -0.888424 0.029763)
(2.15614 -2.02143 -0.351079)
(6.08711 -1.48261 -0.216851)
(5.54386 -1.16331 0.331838)
(2.46696 -1.2552 0.16906)
(4.73656 -0.465286 -0.80232)
(9.74853 0.612999 0.00125865)
(12.5935 1.01521 0.110762)
(9.92796 1.3997 -0.0025828)
(10.2545 2.43753 0.257724)
(18.615 2.03682 0.00794362)
(24.6212 1.25422 -0.0207144)
(23.3761 1.06651 0.27656)
(20.1067 -1.15567 -0.154706)
(20.4349 -3.75529 -0.51975)
(25.695 -4.41149 0.341334)
(28.9893 -2.75362 0.264455)
(26.4213 -1.02538 -0.122485)
(26.6317 0.672217 0.00725535)
(31.1407 2.60101 0.527397)
(29.6687 3.84556 0.445415)
(23.7533 2.08332 -0.131487)
(23.7688 0.185951 -0.313316)
(-5.64904 0.488001 2.08284)
(-7.90658 0.689962 0.944506)
(-12.087 -2.7633 -0.191468)
(-40.1516 3.02914 -2.58299)
(-39.9443 9.46557 -14.4931)
(-66.4372 -22.59 14.9048)
(573.168 -238.258 -230.073)
(-54.5742 -28.0837 -0.95513)
(-22.1198 -12.0228 -0.304119)
(-18.3982 -8.36904 0.127986)
(-20.4181 -3.69382 -0.189424)
(-18.2991 -1.63226 -0.269396)
(-14.2941 0.678362 0.323655)
(-9.15768 1.21189 -0.00136981)
(-6.84672 0.405322 -0.395199)
(-5.57007 0.627454 -0.114881)
(-3.60331 0.579493 -0.00022932)
(-5.70319 0.769971 0.275136)
(-1.18923 -0.233535 -0.130903)
(5.63095 -2.24664 -0.281)
(2.71707 -2.09465 0.0238623)
(2.12384 -0.645786 -0.510035)
(6.3504 0.296443 -0.017005)
(7.25983 2.0414 0.584539)
(7.27742 1.40032 0.300396)
(3.82501 1.53028 -0.101991)
(1.81048 1.57526 -0.195597)
(1.99462 -1.05954 -0.252366)
(2.42634 -0.657469 -0.00489584)
(6.32043 -0.0736711 0.257317)
(5.51546 -0.762348 0.378635)
(2.50787 -1.33253 -0.369071)
(5.9129 -0.821438 -0.22841)
(11.0242 1.22342 0.0507688)
(12.4735 0.983202 0.392171)
(10.7818 0.029226 -0.103808)
(11.4276 1.83203 0.00610976)
(17.4778 2.47285 0.00264607)
(22.9481 0.307849 0.000880349)
(21.975 -1.05158 0.306181)
(18.0081 -1.73369 -0.235094)
(18.9655 -2.3745 -0.329117)
(26.2161 -1.97791 0.302759)
(30.4804 -1.54144 0.0444082)
(28.4021 -1.35599 -0.213278)
(29.251 0.433054 0.00948962)
(33.2584 2.28882 0.623624)
(29.4445 2.39508 0.239246)
(21.7627 1.72876 -0.425549)
(21.9398 1.11854 -0.101057)
(-2.69745 -0.715851 0.512798)
(-6.57872 5.67629 -2.16095)
(-5.2896 3.55851 -0.916802)
(0.00503039 7.65168 1.72263)
(3.95138 30.4567 12.378)
(12.5255 16.0012 -28.3488)
(-33.7542 -39.2448 -3.11362)
(-25.4692 -10.4206 -1.85802)
(-23.6691 -5.60513 0.287437)
(-17.3514 -6.54293 -0.0129443)
(-15.7522 -4.44208 -0.013843)
(-14.7999 -2.49523 -0.00158056)
(-12.1239 -0.103797 -0.000552497)
(-11.1997 0.0766938 -0.00348044)
(-8.41833 -3.35985 -0.00184692)
(-5.04686 -0.433957 -0.0016422)
(-2.34864 -1.23263 -0.0013893)
(-4.9885 -0.716734 -0.331316)
(-3.71097 1.21777 -0.142451)
(2.70804 -1.92118 0.103412)
(4.06454 -2.66922 0.0458537)
(4.59345 -0.644235 -0.00214256)
(7.77291 -0.440108 -0.005866)
(8.14649 0.94533 0.00547837)
(6.20424 0.587604 -0.307137)
(3.70876 0.13014 -0.186167)
(1.34435 0.635542 -0.0858768)
(1.28707 -0.78207 0.312982)
(3.38808 1.07961 0.322805)
(5.95429 1.20255 0.109481)
(3.9705 -0.944923 -0.135054)
(2.39447 -1.14038 -0.2161)
(7.93315 0.24165 -0.0028627)
(12.0017 1.64728 0.0255199)
(11.1 0.398045 -0.0109513)
(10.9925 -1.46209 -0.122535)
(13.3076 0.725713 0.00248117)
(16.7063 2.47292 0.0101605)
(20.216 0.463525 -0.0198589)
(20.8245 -1.76756 0.260118)
(18.4528 -1.30984 -0.193909)
(20.1304 0.458826 -0.284255)
(26.7366 1.34894 0.23881)
(29.7666 0.274367 0.205614)
(28.8913 -0.437755 -0.148508)
(31.1877 0.498542 0.00865367)
(33.5913 0.815516 0.561337)
(28.9679 -0.526933 -0.0377786)
(22.1579 0.453669 -0.227376)
(20.2064 1.3658 0.228659)
(2.34582 8.84081 -0.594652)
(-2.61652 8.16466 0.0247486)
(-9.62028 8.4854 2.00707)
(0.877026 11.0189 0.621516)
(-11.3449 -3.75543 -17.8509)
(-10.4985 -35.6156 -2.94339)
(92.2153 -43.6845 -34.356)
(-16.3142 -14.7627 0.495048)
(-17.3169 -7.16556 0.685227)
(-16.9619 -3.2452 -0.0119518)
(-15.3697 -3.3717 0.000760154)
(-12.8823 -1.54469 0.00076782)
(-11.0861 -2.10467 -0.00457407)
(-13.2346 -1.82497 -0.00501031)
(-7.47902 -2.04136 -0.000699763)
(-2.91668 -0.563941 -0.00152238)
(-3.95578 -3.53395 0.348411)
(-2.63857 -3.35162 -0.455243)
(-2.70036 -0.184182 0.396532)
(0.776497 -0.175287 0.0379729)
(4.31754 -1.39061 -0.179673)
(4.9099 -0.780462 0.245299)
(8.33955 0.41466 0.223384)
(8.54358 -0.280783 0.00337356)
(6.25912 -0.0361491 -0.184121)
(3.88672 0.342698 0.259157)
(0.668086 -0.223915 0.238285)
(2.5535 -0.341853 -0.223293)
(4.90494 0.884708 -0.312046)
(3.78679 1.01701 0.201181)
(2.58891 -1.33366 -0.184409)
(3.99264 -0.224941 -0.186626)
(9.39735 2.16925 0.180587)
(11.2168 1.38409 -0.0204938)
(8.58631 -0.879283 -0.00543315)
(11.196 -2.06262 0.140213)
(16.3457 -0.374154 0.112502)
(17.1455 1.66012 0.0100756)
(17.6468 1.00027 0.00815216)
(19.7608 -0.800532 -0.0369796)
(20.792 -0.361522 -0.109389)
(22.2872 2.43561 -0.0136339)
(25.9827 3.2197 0.242016)
(28.2468 0.88545 0.0264854)
(28.6837 -0.0827285 -0.0887566)
(30.8166 0.651314 0.00719768)
(31.9745 -0.713433 0.032621)
(28.9948 -2.6157 -0.0651532)
(24.1286 -1.35058 0.172636)
(19.6606 0.474817 0.336315)
(-3.54123 8.34834 1.05161)
(-7.0226 5.76485 -2.44771)
(-1.73027 12.0172 -2.54779)
(-11.281 15.1079 -0.510006)
(-31.726 7.43404 25.2024)
(-18.3899 42.4457 -13.0646)
(13.7603 -26.4186 6.47301)
(-0.367599 -10.1307 0.407544)
(-9.29313 -5.36595 0.738499)
(-12.6307 -3.10155 -0.00112187)
(-13.6349 -1.77402 -0.00134442)
(-13.2256 -1.67649 -0.005026)
(-12.4772 -4.12983 -0.0041813)
(-11.1237 -1.8551 -0.00179358)
(-6.84123 0.129595 -0.220025)
(-6.91871 -2.0669 0.511965)
(-5.82983 -2.79991 1.06941)
(-0.797525 -2.10414 -0.936585)
(0.255955 -1.55296 0.14285)
(1.19819 0.892211 0.269138)
(3.31052 -0.399777 -0.138421)
(6.85029 -0.0300861 0.348663)
(8.3958 1.32427 0.0534218)
(7.58515 -1.36526 0.0077111)
(6.9846 -0.853984 -0.12144)
(3.47395 -0.16267 0.320531)
(0.489791 -0.0390327 -0.491237)
(2.67447 0.280772 -0.20128)
(5.0857 -0.505888 0.169372)
(3.17822 0.216544 0.126705)
(2.42204 -0.552389 -0.152227)
(6.77454 0.865504 -0.143207)
(9.94054 3.30582 0.780478)
(8.18913 1.06284 0.0732433)
(6.79262 -2.01481 -0.278573)
(11.627 -2.52944 0.249689)
(17.961 -1.77042 0.0336654)
(18.4211 -0.221864 -0.0463339)
(17.1386 0.936439 -0.0673854)
(19.1245 0.436704 -0.121579)
(22.5003 0.268599 0.223781)
(24.6046 2.88819 0.121185)
(24.7953 3.97972 -0.12716)
(25.64 0.724202 -0.238949)
(28.6006 -0.833658 -0.0076632)
(30.3969 0.446859 0.130624)
(29.5071 -0.84014 -0.148657)
(28.1751 -3.19183 -0.0114649)
(26.0214 -2.6577 0.292678)
(21.298 -0.697313 -0.0107897)
(-0.898464 -2.93957 -1.78781)
(1.96723 -0.0930803 1.12311)
(2.03642 8.20152 4.09768)
(9.92761 7.73605 -0.728035)
(-42.441 37.1836 -38.1535)
(-51.6369 79.1861 -29.4107)
(13.0091 6.11571 -1.49934)
(-1.18643 -0.194992 0.592975)
(-8.55588 -0.879031 0.0183178)
(-12.4812 -0.747144 -0.00168365)
(-13.5955 -0.784427 0.153184)
(-15.8337 -1.10723 -0.395511)
(-11.306 -2.26419 -0.309867)
(-7.91224 -0.886158 0.194775)
(-7.74991 -0.933195 -0.0230652)
(-6.57735 -1.94723 0.908239)
(-4.00105 -0.430423 -0.151382)
(-1.07992 -0.342366 -0.212723)
(1.0469 -0.0121392 0.177873)
(2.21338 1.34563 -0.100432)
(3.16656 1.23843 -0.495092)
(7.06598 0.908233 -0.215846)
(6.66571 0.38846 0.00578244)
(5.82386 -1.72167 0.0775043)
(7.76217 -2.51338 0.324807)
(4.90428 -2.02014 0.187822)
(1.22268 -0.213634 -0.241324)
(1.96857 0.114865 -0.000517239)
(4.82634 -0.836007 0.18267)
(3.7272 0.149465 -0.125448)
(3.40327 1.21544 -0.582617)
(8.8171 2.14487 0.00942115)
(9.63874 2.74727 0.419149)
(4.56503 0.783949 -0.227403)
(4.0988 -2.07789 -0.220702)
(11.5024 -3.0507 0.54936)
(19.2309 -2.91304 0.323411)
(20.5283 -1.85748 0.00683462)
(18.4684 -0.125372 0.1798)
(18.9266 0.363247 0.0717805)
(23.86 0.422777 0.0388162)
(26.925 2.70464 0.00106973)
(23.2732 3.83724 -0.152292)
(22.2327 1.45262 -0.184512)
(28.3406 -0.712877 0.15594)
(30.806 -0.496837 0.300827)
(27.4252 -0.897723 -0.237341)
(26.7264 -2.35744 -0.07643)
(27.2482 -2.41534 0.153116)
(23.854 -0.993876 0.00453706)
(0.195394 -1.37118 0.272674)
(6.39978 -1.86572 0.39936)
(8.66602 -2.31038 -1.01405)
(10.9343 -5.69006 1.19254)
(-0.0246588 -5.26118 -13.7595)
(-90.3649 -8.45763 -11.8606)
(2.05644 8.80091 0.740596)