/*--------------------------------*- C++ -*----------------------------------*\
| =========                 |                                                 |
| \\      /  F ield         | OpenFOAM: The Open Source CFD Toolbox           |
|  \\    /   O peration     | Version:  5.0                                   |
|   \\  /    A nd           | Web:      www.OpenFOAM.org                      |
|    \\/     M anipulation  |                                                 |
\*---------------------------------------------------------------------------*/
FoamFile
{
    version     2.0;
    format      ascii;
    class       surfaceVectorField;
    location    "0.2";
    object      ddtCorrDdt0(Uf);
}
// * * * * * * * * * * * * * * * * * * * * * * * * * * * * * * * * * * * * * //

dimensions      [0 1 -2 0 0 0 0];

internalField   nonuniform List<vector> 
12667
(
(0.000731852 -0.0040696 -0.00194984)
(0.263023 0.00368299 -0.00395712)
(0.268683 -0.00397971 0.000614909)
(0.0114461 -0.00530498 -0.000132758)
(0.526093 0.00147567 -6.06162e-05)
(0.539082 -0.00403574 -3.66253e-05)
(0.00806257 -0.00975684 0.000526408)
(0.525132 -0.00614474 7.87256e-05)
(0.54234 -0.00664795 -0.00167466)
(0.0185896 -0.0418686 0.00123609)
(0.535138 -0.0185357 0.000836258)
(0.566017 -0.0128226 0.00479882)
(0.00176829 -0.0550207 0.00053145)
(0.0122046 -0.0502378 -0.00136055)
(0.00508465 -0.0725718 0.00324161)
(0.561235 -0.0332969 0.000608288)
(0.702705 -0.0625813 0.00354751)
(-0.00497865 -0.207883 -0.0519667)
(0.000554252 0.0215001 0.0166398)
(-0.00563819 -0.150025 0.007236)
(0.00368435 -0.0250723 0.0320173)
(-0.185982 -0.0361322 0.0458689)
(-0.0500453 -0.0143111 -0.0211343)
(0.157248 0.045611 -0.450173)
(0.264825 -0.0401207 -0.0084443)
(0.00239926 0.0153249 -0.000423506)
(-0.000349338 0.0165726 0.0007446)
(0.279671 0.00771166 0.00133876)
(0.44782 0.0318438 0.00171881)
(-0.00790716 0.0420793 0.000628468)
(0.0066576 0.00539136 -0.00216122)
(-0.00321772 0.0914682 0.000254002)
(-0.00952627 0.00459563 -0.000592683)
(0.457441 0.0100754 -0.00187239)
(0.573516 0.00603318 0.00119501)
(-0.00564032 0.0084542 -0.00199115)
(-0.0047059 0.00783259 -0.00191892)
(-0.00485268 0.00885583 -0.00260961)
(-0.00372043 0.00866256 -0.0028672)
(-0.0139028 0.00317768 0.000340649)
(0.416385 0.00793801 0.00078696)
(0.529891 0.00303363 7.64139e-05)
(-0.0158431 0.00285887 0.000104117)
(0.421231 0.00743074 0.000239616)
(0.53563 0.003197 -0.000684159)
(-0.0178139 0.00224954 3.34025e-05)
(0.420001 0.00632181 3.06799e-05)
(0.534753 0.00239904 0.00129258)
(-0.0182298 0.0028244 8.59684e-05)
(0.421198 0.00417977 9.76183e-06)
(0.535665 0.0020161 0.000544263)
(-0.0109577 0.00269097 5.49916e-05)
(0.423429 0.00820446 0.000154197)
(0.538285 0.00338163 -0.00220422)
(-0.0116182 0.000817091 0.000122917)
(0.423791 0.00434667 -0.000168455)
(0.539858 0.00184612 0.00163688)
(-0.00774055 -0.00017414 0.000170051)
(0.424898 0.00119812 0.000335602)
(0.539588 -0.000216987 0.000156213)
(-0.00731298 -9.2173e-05 0.000113549)
(0.426041 0.00830405 -4.87976e-05)
(0.539374 -0.000349101 -0.0020671)
(-0.00173537 0.000304219 0.000161519)
(0.427721 0.000310065 0.000218206)
(0.540541 1.42792e-06 0.000164155)
(0.00110889 0.00110384 9.37372e-05)
(0.430625 0.00384074 0.000122215)
(0.542962 0.000367132 0.00109112)
(0.00444066 0.000979342 -1.08332e-05)
(0.43001 0.0161558 -0.000134586)
(0.54232 0.00117813 0.000392666)
(0.00220772 0.000287919 -0.000139791)
(0.428477 0.00100624 4.58609e-05)
(0.540126 0.000166934 -0.00127384)
(0.00433906 0.000168823 -0.00016765)
(0.429048 0.0011863 -0.000227352)
(0.540167 -5.01839e-05 0.00031503)
(0.00967403 -0.000174755 -3.79503e-05)
(0.430418 -0.000887982 -0.000114491)
(0.541468 4.46589e-05 0.00197606)
(0.00298919 -0.000436989 0.000148763)
(0.429761 -0.00494251 0.000216842)
(0.540532 -0.000349257 0.000365288)
(0.00660848 -0.000660428 0.000240235)
(0.428777 0.00245684 0.000211152)
(0.539562 -0.000306665 -0.00142131)
(0.00902479 -0.000945171 4.28418e-05)
(0.429418 -0.00688209 0.000211195)
(0.539898 -0.000499791 0.000476054)
(0.00631921 -0.000589188 -0.000212453)
(0.42826 -0.0121124 -4.70761e-05)
(0.538002 -0.000406771 0.000503608)
(0.00139199 3.69265e-05 -0.000194889)
(0.425327 -0.010229 -0.000123311)
(0.534801 0.000123528 -0.000115647)
(0.00325017 0.000133869 -5.13836e-06)
(0.423939 0.000344107 -5.49972e-05)
(0.533473 0.000333182 0.00039336)
(0.00907099 -0.000216004 0.000102152)
(0.424181 0.00928225 3.90442e-05)
(0.533077 -0.000246549 -0.00149485)
(0.00449351 -2.52822e-05 7.37942e-05)
(0.422895 0.00122051 -2.41384e-06)
(0.530981 -0.000654663 -0.00105173)
(0.00725392 0.000429531 0.000227746)
(0.421921 0.0168221 -1.54212e-05)
(0.529779 -0.00020399 0.000803833)
(0.0135862 -0.000206711 0.000357244)
(0.423097 0.00676371 0.000204021)
(0.531058 -5.96078e-05 0.00146687)
(0.0061494 -0.00116645 6.9822e-05)
(0.422072 -0.00700095 6.97116e-05)
(0.529977 -0.00105057 0.00119989)
(-0.000783632 -0.000820499 1.91006e-05)
(0.418751 -0.00879581 -2.14238e-06)
(0.525496 -0.00133361 -0.000381252)
(0.00583554 3.25712e-05 0.000138375)
(0.418284 -0.000368964 0.000134851)
(0.524344 -0.000100471 -0.000874475)
(0.0196983 -0.000497901 -4.79948e-05)
(0.422089 0.00211033 7.83443e-05)
(0.528775 0.000502297 -0.000293996)
(0.0271638 -0.00146258 -0.000153791)
(0.426406 0.000300683 -9.63737e-05)
(0.532462 -0.00108946 -0.000881982)
(0.0257165 -0.000807711 -0.000108019)
(0.427533 -0.00625726 -0.000210865)
(0.531549 -0.00130291 0.000535097)
(0.0224372 0.000290555 -4.09319e-05)
(0.425666 -0.0129517 -5.43068e-05)
(0.529104 0.000491704 0.00142493)
(0.0252077 0.000670649 0.000139485)
(0.425338 -0.00419522 4.2299e-05)
(0.529278 0.000865561 -0.000911676)
(0.0359386 0.00100601 9.42238e-05)
(0.42945 0.000985667 0.000168102)
(0.533257 0.000868348 -0.00129201)
(0.0335684 0.00112306 2.3732e-05)
(0.431391 0.000416285 -0.000201071)
(0.535149 0.00114021 0.00119158)
(0.0223923 0.000724446 0.000105082)
(0.426482 0.0059281 -2.43667e-05)
(0.530473 0.000659354 0.00110547)
(0.0257517 8.98438e-05 3.33446e-05)
(0.422941 0.0163554 -6.85166e-06)
(0.526489 -4.42615e-05 -0.00125342)
(0.0374004 -0.000617195 -9.71705e-05)
(0.426115 0.00288182 -3.78804e-05)
(0.529013 -0.000426918 -0.000104137)
(0.0353699 -0.000996277 -4.29296e-05)
(0.42881 -0.0076926 -0.000131668)
(0.531396 -0.000859378 0.00152175)
(0.0299946 -0.000949161 0.000233248)
(0.426927 -0.00529474 0.000104916)
(0.52917 -0.000858309 -0.000166397)
(0.0332084 -0.00113261 0.000332705)
(0.425411 0.000274722 0.000347521)
(0.527646 -0.000847379 -0.000930959)
(0.0336764 -0.00115974 0.000186939)
(0.425173 0.00539111 0.000168106)
(0.527055 -0.0014176 0.000341937)
(0.42312 0.00711756 1.66151e-05)
(0.523785 -0.00102594 0.000330585)
(-0.0016659 -0.00636706 -0.00206919)
(0.261223 -0.00343604 -0.0039998)
(0.266982 -0.0050336 0.00145028)
(0.00297317 -0.013592 0.000150821)
(0.517213 -0.00357474 -5.21906e-05)
(0.531333 -0.00789301 -0.00208922)
(-0.0076177 -0.0251248 0.000388325)
(0.510839 -0.023012 0.000449345)
(0.525374 -0.0194266 0.00109867)
(-0.000422817 -0.0425967 0.00186813)
(0.502879 -0.0120535 6.1536e-05)
(0.524876 -0.0307761 -0.0008751)
(-0.00140917 -0.0546331 0.00133476)
(-0.00151417 -0.0462689 -0.00049152)
(0.00030141 -0.047227 0.00110055)
(0.479096 -0.0167738 0.00138168)
(-0.00954497 -0.0405231 0.0277536)
(0.480537 -0.0286346 0.00228355)
(0.537112 -0.0511946 0.0104214)
(3.37895 0.00158846 -0.0752508)
(0.0543214 -0.102005 -0.114787)
(-0.203595 -0.127992 0.151133)
(2.51242 -0.0604882 -0.0832128)
(-7.0634 -0.0769242 0.0481315)
(0.00397026 0.0509082 -0.000587089)
(0.280858 0.00803732 0.0010619)
(0.00172584 -0.00303586 0.000258227)
(0.312607 0.0195721 0.000319974)
(0.444968 -0.0108603 0.000562716)
(0.0458431 0.0432822 -0.00519268)
(0.00726689 0.142831 -0.00240652)
(0.042986 0.110788 -0.0122807)
(-0.013706 0.00879187 -0.000493621)
(0.46357 0.0234707 -0.00174037)
(0.586105 0.0111279 8.1432e-05)
(-0.0052865 0.00307743 -0.00233447)
(-0.00806469 0.0169403 -0.0019291)
(-0.00392775 -0.00768207 -0.0033669)
(-0.00669349 0.0149833 -0.00284907)
(-0.01481 0.00378925 0.000686106)
(0.410102 0.0176247 0.00110109)
(0.528449 0.00382321 -0.000280825)
(-0.0171001 0.00233834 0.000166248)
(0.41944 0.00723513 0.000154301)
(0.535924 0.000962503 -0.000930699)
(-0.0204293 0.00164669 7.04605e-06)
(0.419148 0.00698453 9.15585e-05)
(0.534502 0.00159797 0.000312729)
(-0.013291 0.000820026 7.7943e-05)
(0.420176 0.00118339 0.000120849)
(0.53636 0.000357236 0.00031226)
(-0.0157853 0.000748012 -6.91454e-05)
(0.423342 -0.00273038 0.000233738)
(0.537908 0.000455906 -3.26844e-05)
(-0.0154135 0.00044746 4.40658e-05)
(0.423424 0.000401574 -0.000191524)
(0.536572 0.000351583 0.00195973)
(-0.00662096 -5.41837e-05 0.000116877)
(0.424279 0.00206182 0.000231973)
(0.538106 5.97239e-05 -0.00202434)
(-0.00940658 0.000174091 5.57737e-05)
(0.426332 -0.00308366 5.05724e-05)
(0.539851 -0.00040003 -0.000860345)
(0.00204377 0.00113852 0.000178933)
(0.428934 0.00569212 0.000141911)
(0.541085 0.00057347 0.00116339)
(0.00403896 0.00103932 -0.000106026)
(0.43051 0.0117922 -0.000174753)
(0.543353 0.0010312 0.000794567)
(-0.00149485 6.68073e-05 -7.79499e-05)
(0.428806 0.0184588 -0.000230822)
(0.542088 -0.000286055 -0.00029052)
(0.00261531 0.000373149 -4.1612e-05)
(0.428871 -0.000513426 0.000116409)
(0.540182 -0.000599634 -0.000691908)
(0.00315381 0.00100697 -0.000174229)
(0.429837 -0.00217947 -3.11283e-06)
(0.540659 0.00117026 0.00191263)
(0.00660996 0.000578912 0.000140195)
(0.429878 0.00148126 4.72141e-05)
(0.541314 0.000974354 0.00123719)
(0.00576581 0.000646146 0.000279232)
(0.429839 -0.00785567 0.000354667)
(0.540343 0.000772928 -0.00217499)
(0.00296924 0.000836151 0.000182112)
(0.429003 -0.0100026 0.000159398)
(0.539387 0.00141691 -0.00110872)
(0.0073138 0.00010978 0.000121359)
(0.428502 0.000501265 0.00020449)
(0.539626 0.00109038 0.000606622)
(0.0076895 -0.000678436 4.20904e-05)
(0.427267 -0.00291928 0.000186452)
(0.538031 3.38465e-05 -0.000570399)
(0.00563372 -0.000193814 1.65598e-05)
(0.425927 -0.00697784 6.05432e-05)
(0.534754 -0.000512228 -0.000691419)
(0.00549228 0.000208993 -1.08443e-05)
(0.424443 0.00198109 -0.000108532)
(0.53282 0.000482881 -0.000146749)
(0.00718183 -0.000723274 -6.55084e-05)
(0.423022 0.0150111 -8.91052e-05)
(0.532586 -0.000632743 0.000108444)
(0.00783985 -0.000402406 -9.16251e-05)
(0.423305 0.00667952 -4.66909e-05)
(0.530986 -0.00169283 0.00146178)
(0.00694774 0.000417518 -3.92152e-05)
(0.422952 0.00129412 4.09929e-05)
(0.529723 0.000202047 0.00202638)
(0.00585304 -0.000823162 -8.34696e-05)
(0.421548 -0.0025658 -2.53758e-05)
(0.530387 0.000130545 0.000547481)
(0.00476661 -0.001768 -2.23033e-06)
(0.420891 -0.0130321 -5.29549e-05)
(0.529192 -0.00161827 -0.000928608)
(0.00401968 -0.000290811 0.000113565)
(0.420593 -0.0141101 0.000250924)
(0.527023 -0.00125366 -0.00129293)
(0.00763602 0.00142324 7.48382e-05)
(0.420422 0.00388994 0.00015627)
(0.526554 0.000967192 6.13538e-05)
(0.0168322 0.000783392 3.00198e-05)
(0.421288 0.00698896 -5.61105e-05)
(0.527874 0.00165789 -0.000256935)
(0.0240935 -0.000938044 -0.000153412)
(0.424254 -0.000631891 -5.67939e-05)
(0.530744 -0.000255272 -0.000264496)
(0.0262951 -0.00119086 -0.000157201)
(0.427212 -0.0032978 -7.71948e-05)
(0.53271 -0.00130514 0.00130309)
(0.0248922 -9.45383e-05 2.88942e-05)
(0.42703 -0.00284749 4.30446e-05)
(0.530862 -0.00037055 -0.000609008)
(0.0280946 0.00105332 7.08773e-05)
(0.426769 -0.00220149 0.000120687)
(0.529576 0.000927111 -0.00248757)
(0.035987 0.00086006 -0.000127079)
(0.429204 0.00345976 0.000130231)
(0.532897 0.00158196 0.000605235)
(0.034445 -0.000325767 -0.000249224)
(0.429908 0.0010543 -0.000153595)
(0.534114 0.000196995 0.00317442)
(0.0238728 -0.000391469 -0.000136306)
(0.426406 -0.00367703 -0.000200693)
(0.52933 -0.000971681 0.000196643)
(0.0238057 0.000427984 -7.80672e-05)
(0.423969 0.00085891 -0.000102193)
(0.526395 -0.000267918 -0.00122818)
(0.0327045 2.13837e-05 -7.23495e-05)
(0.425607 0.00490596 -4.8092e-05)
(0.529062 0.000546851 0.000366259)
(0.0350194 -0.000893739 1.6105e-05)
(0.427666 -0.00163849 4.38241e-05)
(0.531015 -0.000571783 0.000171171)
(0.0324556 -0.000530124 0.000219115)
(0.427381 -0.00433152 0.000114849)
(0.5293 -0.000823909 -0.0007566)
(0.0337442 -5.3088e-05 0.000182976)
(0.426005 -0.00102311 0.000230914)
(0.527308 1.10895e-05 0.000659665)
(0.0338351 -0.000360337 -2.17208e-06)
(0.424792 0.00414734 -1.46985e-05)
(0.526579 -0.000234147 0.000737563)
(0.423572 0.00266711 -2.59873e-06)
(0.525591 -0.000728817 0.000185526)
(-0.00145607 -0.00669136 -0.00198412)
(0.260486 -0.0106415 -0.00420567)
(0.265169 -0.00629454 0.000144765)
(-0.0187903 -0.00914046 0.000246168)
(0.514113 -0.00865662 0.000179354)
(0.521234 -0.00729593 -5.66488e-05)
(0.00371448 -0.0117453 0.000122685)
(0.507807 0.00131085 0.000218718)
(0.513686 -0.0111622 -0.000389776)
(-0.0422651 -0.0210103 -0.00373131)
(0.502313 -0.000664435 0.000457321)
(0.500124 -0.012244 -0.00202343)
(-0.0157963 0.0100846 0.00226563)
(-0.0394571 -0.0180208 -0.00657041)
(-0.0133026 0.00496302 0.00403529)
(0.451986 -0.0741456 -0.0018286)
(0.0140622 -0.0326801 0.000376062)
(0.434469 0.0290618 -0.00104192)
(0.469477 -0.0230626 -0.0131881)
(0.544876 -0.106733 0.011937)
(-0.0825981 -0.109409 0.00597565)
(0.276933 -0.356133 -0.0156632)
(0.292628 0.167129 0.0144626)
(0.737866 -0.172779 -0.0569029)
(0.0369494 0.208036 -0.00778883)
(0.256711 0.058839 -0.00903444)
(-0.0306137 0.045811 -0.00918072)
(0.288808 0.107649 0.00570917)
(0.0119853 0.0938396 0.533417)
(0.0350111 0.456076 -0.0121817)
(0.0868855 0.256016 0.686059)
(0.417516 -0.0523456 -0.01235)
(0.452966 -0.0654512 -0.0182762)
(0.391934 0.139782 0.0150823)
(0.354264 0.133409 -0.000621693)
(-0.0190113 -0.00119521 -0.000146593)
(0.45123 0.0191 -0.000723325)
(0.59133 -0.00835441 0.00222608)
(-0.0139666 0.00234164 -0.00202753)
(-0.0309957 -0.00462769 -0.00241757)
(-0.00806721 -0.0106664 -0.0042214)
(-0.0312034 -0.0133173 -0.00573305)
(-0.026679 0.000194106 0.000569598)
(0.411721 0.00986808 0.000457025)
(0.517083 -0.00214504 0.0044635)
(-0.0173517 -0.000315511 7.96325e-05)
(0.418838 0.0121822 6.55567e-05)
(0.532908 -0.00276901 0.000150568)
(-0.0274141 0.000303014 0.000205352)
(0.419946 0.00562404 0.00015503)
(0.534027 -0.00183394 -0.000619543)
(-0.0181041 -0.000442712 0.000276608)
(0.419251 0.0102283 -3.59274e-05)
(0.534261 -0.000293702 -0.000343942)
(-0.0120456 -0.00164642 0.000111498)
(0.421849 0.00298142 9.48459e-05)
(0.53829 -0.00230577 -0.00100568)
(-0.0133906 -0.000686256 -3.75418e-06)
(0.424634 -0.000587736 -9.13788e-06)
(0.539383 -0.00192922 0.000108402)
(-0.0111506 2.24462e-06 0.000165726)
(0.42514 0.000925266 0.000280527)
(0.538669 -0.000125167 -0.000193597)
(-0.00259481 0.000329967 0.00013668)
(0.426744 0.00181015 0.000178915)
(0.54003 -0.000231213 0.00123038)
(0.00551511 0.000959128 -0.000211673)
(0.429724 0.0003299 -7.13844e-05)
(0.542348 0.000586281 0.000964584)
(0.00127381 0.000136372 -0.000299531)
(0.429485 -0.00610389 -0.000321478)
(0.541916 0.000854853 -0.000217154)
(-0.00681987 -0.000722979 -3.65752e-05)
(0.427739 -0.0216732 -6.70303e-05)
(0.540311 -0.000933126 0.00205761)
(0.00314648 -3.06689e-06 0.000154946)
(0.429771 0.00107948 5.13739e-05)
(0.541968 -0.000827437 -0.000390689)
(0.00333304 0.000387282 0.000218314)
(0.430322 0.0064751 1.72345e-05)
(0.542124 0.000518617 -0.00153831)
(0.00283293 -0.000204612 0.000261587)
(0.42914 -0.000390154 8.70385e-05)
(0.540959 0.000173157 -0.00126518)
(0.00658959 -0.000351028 0.000234895)
(0.429656 0.0100157 0.000221379)
(0.541069 -0.000398457 -0.000841096)
(0.0054862 2.74212e-05 0.000181762)
(0.429474 0.00242013 0.000108683)
(0.539934 1.02932e-05 0.00178547)
(0.00517122 -0.000169982 0.000269588)
(0.428257 0.016082 0.00013081)
(0.538153 -5.76224e-05 -0.000329003)
(0.00581236 -0.000874407 0.000204944)
(0.426391 0.00731339 0.000253436)
(0.535979 -0.000714108 -0.000416482)
(0.0111685 -0.000238739 -6.44952e-05)
(0.426724 -0.000684746 7.6582e-05)
(0.535348 -0.00116572 0.0011912)
(0.00804344 0.000654793 -0.000186799)
(0.425558 0.00666235 -0.000200155)
(0.533324 0.000566916 -1.28463e-05)
(0.00358546 0.0004466 -7.0301e-05)
(0.422761 -0.00627499 3.16423e-06)
(0.530374 0.000560576 0.0016594)
(0.00860613 0.00110473 8.58995e-05)
(0.424127 -0.0151177 3.78395e-05)
(0.532044 0.000506681 0.00114661)
(0.00443692 0.00147466 5.48532e-05)
(0.423407 -0.00675663 0.000167235)
(0.532072 0.00228562 -0.0012709)
(0.000342846 -4.71113e-05 5.14755e-06)
(0.419635 -0.00946817 -6.56619e-06)
(0.528792 0.00157035 -0.00118563)
(0.00665278 -0.000968354 0.000200104)
(0.419733 -0.00151151 5.05674e-05)
(0.528244 -0.000688923 -0.00178309)
(0.010756 0.000194777 0.000293659)
(0.422045 -0.000328775 0.000103827)
(0.528715 -0.000519894 -6.07563e-05)
(0.0101864 0.00171596 2.53877e-05)
(0.422322 0.00277192 -1.97639e-05)
(0.527977 0.00106314 0.00209957)
(0.0118635 0.00129006 -0.000142924)
(0.420758 0.00768882 -0.000266113)
(0.527248 0.00187106 0.000181745)
(0.020819 -0.000533904 1.94298e-05)
(0.421978 0.00263693 3.55415e-05)
(0.528754 0.00021479 -0.00113249)
(0.0266215 -0.00123556 0.000123014)
(0.426336 -0.0013021 0.000199208)
(0.531391 -0.00132681 -2.45297e-05)
(0.0273944 -0.000290647 0.000134813)
(0.428212 0.00158164 0.000146976)
(0.531881 -0.00111499 -3.33281e-05)
(0.0310368 0.000880911 0.000180037)
(0.428234 0.00698567 0.000189689)
(0.531708 0.000370505 -0.000632967)
(0.0335605 0.000174877 0.000103803)
(0.428319 0.00475216 0.000163329)
(0.532334 0.00114442 0.00113885)
(0.0315178 -0.00155579 -0.00010505)
(0.427743 -0.00395742 2.97084e-06)
(0.531958 -0.000814856 0.0012783)
(0.0275932 -0.00105328 -0.000166611)
(0.427034 -0.0134837 -0.000200461)
(0.529903 -0.00182973 -0.00100554)
(0.0259202 0.000889853 -7.22348e-05)
(0.426395 -0.00834858 -0.00011422)
(0.528398 0.000301103 -0.000521998)
(0.0284111 0.000919422 6.80534e-05)
(0.425641 0.00330631 -5.82244e-05)
(0.528634 0.0016333 0.00117129)
(0.0334015 -8.93466e-05 0.000142546)
(0.426405 0.00236332 0.000152797)
(0.52968 0.000169462 -0.000462229)
(0.0355685 0.000483553 0.000126613)
(0.428096 -0.000246994 0.000143996)
(0.529895 -0.000229072 -0.000666457)
(0.0352808 0.00151545 3.33143e-05)
(0.427292 0.00178034 0.000242278)
(0.52838 0.00132453 0.000992191)
(0.0319936 0.00101689 -1.51289e-05)
(0.424166 -0.000422186 7.27254e-05)
(0.526138 0.00179967 0.000652104)
(0.422305 -0.00510448 0.000141969)
(0.524987 0.000437965 -0.000139848)
(0.000333614 -0.00305805 -0.00204366)
(0.260348 -0.00117008 -0.00427509)
(0.265731 -0.00290198 -0.00124551)
(-0.0064818 -0.000299844 0.000151891)
(0.517512 -0.00660931 0.000303469)
(0.525354 -0.00303053 -0.000339004)
(0.000146216 0.00308343 0.000553274)
(0.512315 -0.000101955 0.000207966)
(0.519247 0.00249912 -5.5868e-05)
(0.0128503 0.0216643 0.000115711)
(0.516578 -0.0153852 0.000913147)
(0.523452 0.00399507 0.00403282)
(0.0142977 0.0143553 -0.000753246)
(0.0123862 0.0217768 -0.00329766)
(0.0139945 0.0202906 -0.00254005)
(0.446394 0.0260449 0.00155759)
(-0.0217814 0.0385748 0.00221289)
(0.469694 0.00930898 -0.000993466)
(0.495862 0.0307843 -0.00198206)
(0.354294 0.0055996 -0.000471923)
(-0.0305254 0.104415 -0.00276773)
(-0.0766087 0.169663 -0.0012728)
(0.448398 0.0220169 0.00258462)
(0.463522 0.155877 -0.0165831)
(-0.0164411 -0.0311652 0.199544)
(0.34734 0.129356 -0.0217285)
(0.301394 0.0786459 -0.00467698)
(0.537396 0.000314022 -0.00143037)
(0.0711494 -0.0169226 -0.00238847)
(-0.0277935 -0.0120218 -0.000120094)
(0.431122 0.0319992 0.000870405)
(0.55798 -0.024286 0.00347959)
(-0.0103091 0.0316189 -0.00106289)
(-0.0045247 0.0126011 0.00147903)
(-0.00875555 0.0764561 -0.0010048)
(-0.00280318 0.0246763 0.000667881)
(-0.0252761 -0.00621434 -4.68877e-05)
(0.419456 0.0119158 -0.00020801)
(0.5351 -0.0127624 0.000662249)
(-0.0257851 -0.00397585 0.000140925)
(0.421673 0.00324997 0.000300023)
(0.536402 -0.0075988 -0.00255245)
(-0.0221571 -0.00252301 -8.61869e-05)
(0.421788 0.000558071 -6.45507e-05)
(0.537659 -0.00534713 -0.00038338)
(-0.0269404 -0.00116477 -0.000217732)
(0.420967 -0.0048485 -0.000110165)
(0.535799 -0.00271415 0.00222638)
(-0.0163924 -0.00119623 -2.57564e-05)
(0.421819 0.000682517 2.8333e-05)
(0.535891 -0.00152171 0.000921799)
(-0.0115078 -0.000904603 0.00027505)
(0.425005 -0.000329176 5.34278e-05)
(0.539317 -0.00202776 -0.000482518)
(-0.0101376 0.000116772 0.000293749)
(0.426416 0.00193777 0.000401013)
(0.540233 -0.000691187 -0.0017978)
(-0.004227 0.000751478 -2.90688e-05)
(0.427542 0.0021377 9.67109e-05)
(0.540745 2.2498e-05 6.85468e-05)
(0.00236959 0.000375796 -0.000181109)
(0.429254 0.00579222 -7.9994e-05)
(0.542453 0.000756146 -0.000226603)
(-0.00301964 -0.000921588 -8.90587e-05)
(0.427857 -0.00216997 -2.15889e-05)
(0.541461 -0.000154647 -0.000434638)
(0.000583632 -0.000686376 2.08808e-05)
(0.428032 -0.0085279 6.28017e-05)
(0.539994 -0.00101738 -0.000641325)
(0.00527705 0.000152837 -8.63269e-05)
(0.430814 0.00114191 -7.22623e-05)
(0.541998 0.000153747 -0.0010311)
(0.000490386 -0.000275195 -0.000114064)
(0.429791 0.00116636 -0.000484521)
(0.541909 -8.91283e-05 0.00161514)
(0.00345676 -0.000737962 4.6787e-05)
(0.428568 0.000351214 4.04119e-05)
(0.540171 -0.000751005 0.000380706)
(0.00631908 -0.000902696 9.52033e-05)
(0.429455 0.00613724 0.000182256)
(0.54014 -0.00102371 0.00058331)
(0.00898442 -0.000685266 5.77245e-05)
(0.429756 -0.000595956 2.86317e-05)
(0.539812 -0.00125213 0.00248731)
(0.00389278 -0.000276826 0.000114619)
(0.428777 0.0017949 3.98692e-05)
(0.538725 -0.000888433 -0.001376)
(0.00288836 -0.000174095 0.00012513)
(0.426529 0.0114525 9.67517e-05)
(0.536655 -0.000798663 -0.00134422)
(0.0135718 0.000311872 -5.89905e-05)
(0.427335 0.0101785 1.23831e-05)
(0.536359 -0.000437846 0.000410339)
(0.00421393 0.000741675 -1.02559e-05)
(0.426091 -0.00476809 -6.82961e-05)
(0.534977 0.000820881 0.00069271)
(0.0033341 0.000933159 0.000111294)
(0.422995 -0.0136961 0.000313399)
(0.532512 0.00126652 0.000802568)
(0.00939823 0.00127192 0.000119134)
(0.424538 -0.00395042 0.000170149)
(0.533138 0.00175094 -0.00235108)
(0.00314942 0.000916145 0.00010587)
(0.422947 -0.00331387 3.7151e-06)
(0.531036 0.00192826 -0.000662519)
(0.000939892 0.000119054 3.88357e-05)
(0.418629 -0.00455352 0.000108138)
(0.526646 0.000962226 0.00153352)
(0.00780519 -0.000138745 -4.57263e-05)
(0.419408 0.00668422 8.90847e-05)
(0.526562 -1.28686e-05 -0.000296328)
(0.0142698 0.000629858 -0.000209556)
(0.423006 0.000706342 -9.44677e-05)
(0.529208 5.78836e-05 0.0011974)
(0.0135578 0.00174573 -0.000311188)
(0.423719 -0.00630682 -0.000175786)
(0.529545 0.00141762 0.00103796)
(0.00823221 0.00154297 -8.77416e-05)
(0.420509 0.00187359 -0.000192909)
(0.526823 0.00199775 -0.00152485)
(0.0173298 0.000152151 0.000215268)
(0.420243 0.00377989 0.000125804)
(0.526755 0.00073756 -0.00123081)
(0.0282845 -0.000407756 0.000223186)
(0.42564 0.00251221 0.00020753)
(0.531047 -0.00079568 -0.000124331)
(0.0299036 0.000342378 0.000201838)
(0.429156 0.00905819 0.000116848)
(0.532986 -0.000507974 0.000348896)
(0.0303215 0.000565423 0.000172989)
(0.428515 0.00801573 4.53169e-05)
(0.532403 0.000494542 0.00101417)
(0.0276139 -0.000877628 6.25463e-05)
(0.426513 -0.00165846 9.75587e-05)
(0.531411 0.000131735 0.000779641)
(0.0278565 -0.00238993 -9.23782e-05)
(0.42585 -0.00823996 0.000120698)
(0.530393 -0.00170788 -0.000660255)
(0.0321473 -0.00159461 -0.000148096)
(0.428021 -0.00908816 -6.43163e-05)
(0.530723 -0.00218838 -0.00106666)
(0.0312653 0.00041565 -0.000100227)
(0.428899 -0.00940069 -0.000126472)
(0.530718 7.67406e-05 0.00100703)
(0.0271425 0.000906898 2.64551e-05)
(0.426252 -0.00388255 -7.22196e-06)
(0.528893 0.00141628 0.00123843)
(0.0324443 0.000605717 0.00015425)
(0.426031 0.000712276 0.000229653)
(0.528685 0.000511462 -0.00117636)
(0.0379422 0.00136814 0.00025963)
(0.429051 0.00954629 0.000171871)
(0.530739 0.000461957 -0.000823089)
(0.0345457 0.00206739 0.00028174)
(0.428166 0.00724387 0.000239933)
(0.529839 0.00181282 0.00122643)
(0.0290954 0.00135137 0.000229803)
(0.42327 0.00223775 0.000283878)
(0.525465 0.00205897 7.35264e-05)
(0.420617 -0.00803479 0.000228791)
(0.522795 0.000876936 -0.000571784)
(-0.00644995 0.000637768 -0.00192949)
(0.26015 0.0145802 -0.00371015)
(0.264903 0.000878564 -0.00144726)
(0.00161395 0.00169724 0.000359576)
(0.518847 0.000148615 0.000305106)
(0.527882 0.000567016 0.000668533)
(-0.0173895 0.00310651 0.000567606)
(0.514416 -0.00499009 0.000136246)
(0.522904 0.00296645 0.00196033)
(0.011952 -0.00453582 0.0017367)
(0.511599 -0.0301894 8.84876e-05)
(0.528973 0.00357217 0.00124665)
(-0.0290131 -0.0182929 -0.00080102)
(0.0111432 -0.000282397 0.00294013)
(-0.0279715 -0.0198902 -0.00382997)
(0.473396 0.0306995 0.000280874)
(-0.0320476 -0.00379227 0.000535926)
(0.478229 -0.101306 0.000303363)
(0.507024 -0.00525892 0.0158661)
(0.325486 0.023017 0.0322453)
(0.0772495 0.0619197 0.0540445)
(-0.700425 0.0730435 0.0255891)
(0.37729 -0.0367241 0.0427329)
(0.364007 0.134684 0.0897842)
(1.32139 -0.0394801 0.121467)
(0.154994 0.127681 0.0577194)
(0.00100773 -0.0213631 -0.340255)
(0.0908671 -0.0769807 0.132842)
(-0.127481 -0.050327 0.14139)
(-0.0487347 -0.0199884 0.000782843)
(0.419895 0.00504397 0.00026015)
(0.557323 -0.0364603 -0.001296)
(-0.0377914 0.00443717 0.00391336)
(-0.100187 0.0104725 0.00822621)
(-0.0395351 -0.0145394 0.00271682)
(-0.136152 0.00122221 0.00526578)
(-0.0376082 -0.0109118 0.000138735)
(0.430679 -0.00849744 -0.000198872)
(0.539337 -0.0187739 -0.00167359)
(-0.0291529 -0.00633471 9.46666e-05)
(0.427418 -0.0016913 0.000195304)
(0.542281 -0.0103589 0.0022351)
(-0.0284742 -0.00435214 -8.85144e-05)
(0.424278 -0.0035755 -0.000140384)
(0.5402 -0.00598085 0.00157443)
(-0.0202603 -0.00247784 0.000135854)
(0.423321 -0.00113422 0.000115476)
(0.539091 -0.00445681 -0.00264173)
(-0.0176156 -0.000836365 0.000107509)
(0.42387 -0.0045184 0.000198172)
(0.53917 -0.00133962 -0.00171413)
(-0.008671 -4.94338e-05 0.000179278)
(0.425993 0.000767823 -8.29982e-05)
(0.540434 -0.00102193 0.000925011)
(-0.00988376 0.000701141 0.000204074)
(0.427358 0.00659365 9.18569e-05)
(0.541233 0.000134038 0.000680249)
(-0.00273388 0.00116911 4.58428e-05)
(0.428135 0.00599579 5.08293e-05)
(0.54185 0.000451462 0.000527171)
(-0.00345586 0.000669335 7.95073e-05)
(0.428628 0.00263006 3.41676e-05)
(0.542126 0.00127253 8.98553e-05)
(-0.00619282 -0.000743811 0.000130244)
(0.426087 0.00292138 0.000140941)
(0.539681 -0.000166831 0.000142389)
(0.00619416 -0.000376089 -3.0298e-05)
(0.428491 4.86678e-05 3.27588e-05)
(0.540689 -0.000993192 -0.00132185)
(0.00582284 0.000420703 -0.000470324)
(0.431807 -0.013636 -0.000102438)
(0.543115 0.000815497 0.00108949)
(-0.000850267 -4.45554e-06 -0.000330214)
(0.429259 -0.000585517 -0.000551545)
(0.541004 0.000363339 0.00301552)
(0.0048191 -8.22839e-05 0.000175836)
(0.428473 -0.00431768 -2.28274e-05)
(0.539806 -0.000314248 -0.00200741)
(0.00587474 0.00033748 0.000115734)
(0.429981 0.000452738 0.000232414)
(0.540454 -3.54641e-05 -0.00172094)
(0.0105559 0.000688705 1.07727e-05)
(0.4302 0.00757612 -8.00781e-05)
(0.540126 0.00030166 0.0010303)
(0.00623878 0.00102227 2.19834e-05)
(0.429198 0.000314498 7.41054e-05)
(0.538741 0.000737357 -0.00115352)
(0.00207979 0.00110275 -1.59684e-05)
(0.426632 0.00521965 -5.74027e-05)
(0.536566 0.000847673 0.00050546)
(0.00878501 0.000460988 3.10295e-06)
(0.426537 0.0030652 -5.87517e-05)
(0.537384 0.000740749 0.0027506)
(0.00108752 -0.000202642 0.000255239)
(0.425263 -0.00293306 0.000231784)
(0.535447 0.000148252 0.000490621)
(0.00409816 -9.39292e-05 0.0003723)
(0.423125 -0.000996275 0.000380374)
(0.531521 6.81612e-05 -0.00307301)
(0.0103788 -2.32351e-05 5.47823e-05)
(0.424616 -0.0109713 0.000225018)
(0.53284 0.000534089 -0.000928788)
(0.00292172 -0.000663852 5.95019e-06)
(0.422138 -0.00168085 -1.8148e-05)
(0.531054 5.78413e-05 0.00374838)
(0.00337064 -0.000815859 0.000158393)
(0.41844 0.00568457 0.000124047)
(0.526344 -0.00108356 0.000105678)
(0.00824974 5.08434e-05 4.04008e-05)
(0.420493 -0.00418101 0.000113684)
(0.527106 -0.000427149 -0.00268882)
(0.0150777 0.000806599 -6.06717e-05)
(0.423949 0.000832231 -0.000154862)
(0.530507 0.000623799 0.000216996)
(0.015228 0.000998664 -5.75009e-05)
(0.423961 0.00194481 -7.60949e-05)
(0.530406 0.00108083 -6.21369e-05)
(0.0087142 0.00106801 2.05378e-05)
(0.420599 0.00100017 -9.30721e-05)
(0.526405 0.000939995 -0.000308313)
(0.0160759 0.000936648 0.00011804)
(0.42008 0.010722 -1.30317e-05)
(0.525271 0.000895841 0.00103719)
(0.0290233 0.000463416 0.00010122)
(0.425054 0.00655703 0.000194382)
(0.529843 0.000425703 -0.000211)
(0.0304556 0.000409247 -3.96518e-05)
(0.429095 -0.000918046 0.000112461)
(0.533507 7.12271e-06 0.000114613)
(0.0259419 0.000126436 -3.01291e-05)
(0.42816 -0.00101738 -5.30519e-05)
(0.532518 0.000488112 0.00184606)
(0.0225127 -0.00118039 0.000155703)
(0.424875 -0.00369671 2.11863e-05)
(0.529581 -0.000208163 -0.000258801)
(0.0264491 -0.00220393 0.000148817)
(0.424567 -0.00940144 0.00026416)
(0.52905 -0.00160212 -0.00221624)
(0.0353132 -0.00167128 -4.26734e-05)
(0.428679 -0.00688035 0.000154545)
(0.532117 -0.00193782 0.00032146)
(0.0347839 -0.00062578 -3.3504e-05)
(0.430197 -0.00519152 -5.00817e-05)
(0.532886 -0.000556695 0.00194097)
(0.02907 -0.000199715 0.000195904)
(0.426782 -0.00357557 7.94238e-05)
(0.529172 -0.00010642 -0.000787447)
(0.0350553 0.000152145 0.000247292)
(0.426475 0.00107393 0.000150217)
(0.528491 -0.000244731 -0.00204136)
(0.0400536 0.00084148 0.000152152)
(0.42992 0.0131894 3.68903e-05)
(0.531526 -9.39705e-05 0.00093991)
(0.0315238 0.000907597 0.000242057)
(0.428257 0.0122177 8.34078e-06)
(0.530379 0.00065573 0.00180041)
(0.0256911 0.000256861 0.000282883)
(0.422465 0.00649724 0.00025658)
(0.524962 0.00014886 -0.000519775)
(0.420296 0.000974974 0.000148481)
(0.521318 -7.28426e-05 -0.00113683)
(-0.0116966 0.00239967 -0.00147689)
(0.260862 -0.0134943 -0.00371794)
(0.265192 0.00200545 0.00363327)
(-0.0037089 0.00230146 8.18322e-05)
(0.518956 0.0026829 -0.000173946)
(0.527765 0.00282901 0.00110022)
(-0.01971 0.00378182 -0.000342856)
(0.516481 -0.000671926 7.49041e-06)
(0.52335 0.00192867 -0.000297114)
(-0.0954972 0.00924752 -0.00322921)
(0.51494 0.0134867 0.000209165)
(0.514174 0.00560572 -0.0032846)