/*--------------------------------*- C++ -*----------------------------------*\
| =========                 |                                                 |
| \\      /  F ield         | OpenFOAM: The Open Source CFD Toolbox           |
|  \\    /   O peration     | Version:  5.0                                   |
|   \\  /    A nd           | Web:      www.OpenFOAM.org                      |
|    \\/     M anipulation  |                                                 |
\*---------------------------------------------------------------------------*/
FoamFile
{
    version     2.0;
    format      ascii;
    class       volVectorField;
    location    "0.2";
    object      ddtCorrDdt0(U);
}
// * * * * * * * * * * * * * * * * * * * * * * * * * * * * * * * * * * * * * //

dimensions      [0 1 -2 0 0 0 0];

internalField   nonuniform List<vector> 
4398
(
(0.000194953 -0.00157879 0.000247141)
(0.0066374 -0.00163106 -4.59338e-05)
(0.00846158 -0.00207158 -0.000855048)
(0.0110022 -0.00583501 0.00224173)
(0.00746507 -0.00449377 0.00162405)
(-0.0588629 0.0102651 -0.0023059)
(0.000789836 0.0102578 0.000790026)
(-0.00726776 0.00824875 0.000469337)
(-0.0116574 0.00422178 1.94898e-05)
(-0.0148598 0.00483516 -4.64863e-06)
(-0.0168202 0.00333589 0.000277001)
(-0.0180048 0.00281789 0.000187668)
(-0.0145797 0.00501194 -0.000292599)
(-0.0112924 0.00207482 7.82791e-05)
(-0.00967689 0.000183048 9.23878e-06)
(-0.00750586 0.000759301 -0.000502017)
(-0.00454464 8.46408e-05 7.54922e-06)
(-0.000315961 0.00162092 0.000121661)
(0.00280628 0.00352789 0.000121913)
(0.00331994 0.00159437 -0.000226151)
(0.00328138 0.00180919 -5.01728e-05)
(0.0070143 0.000805707 0.000238835)
(0.00630511 -0.00110711 -4.67109e-06)
(0.00479266 -0.000675029 -0.000211499)
(0.00785033 -0.00321588 0.000107258)
(0.00766165 -0.00400519 5.3911e-05)
(0.00384413 -0.0019139 -9.20009e-05)
(0.00231595 0.000166258 1.56675e-07)
(0.00616444 0.000675117 -0.000310973)
(0.00679683 0.000616527 -3.85184e-05)
(0.00586508 0.00310809 0.000186534)
(0.0104221 0.00323694 0.000213828)
(0.00988551 -0.000352322 0.000296471)
(0.0026708 -0.00189489 -0.000134273)
(0.00251003 -0.00122628 -5.95733e-06)
(0.0127919 -0.00112418 -4.5071e-05)
(0.0234445 -0.00251099 -0.000189876)
(0.026427 -0.00334603 0.000123619)
(0.0240651 -0.00221654 0.000197824)
(0.0238431 -0.000706248 -0.000181286)
(0.0305816 0.0007412 1.9381e-06)
(0.034745 0.00198473 8.3774e-05)
(0.0279792 0.00300676 0.00032204)
(0.0240819 0.00287875 -0.000175864)
(0.0315694 0.00060752 -5.01244e-05)
(0.0363707 -0.00183085 0.000152671)
(0.0327017 -0.00198772 -4.42634e-06)
(0.0316131 -0.00129894 -0.000161566)
(0.0334378 -0.00124237 3.61653e-05)
(0.0309424 -0.000548509 2.82465e-05)
(-0.00091534 -0.000270927 0.000636101)
(0.00078274 -0.00119641 -0.000908295)
(-0.00259924 -0.0135044 0.000531787)
(-0.00380885 -0.0143166 -0.000126784)
(-0.00744798 -0.0247463 0.00413187)
(-0.0379051 -0.0265028 0.0226198)
(0.00843326 0.0154556 0.000201972)
(-0.00991419 0.0162907 -9.67706e-05)
(-0.0142211 0.0124376 -6.85917e-06)
(-0.0159602 0.00718723 -3.62265e-06)
(-0.0187561 0.00657967 8.63192e-07)
(-0.016848 0.00272609 1.21122e-06)
(-0.0145342 0.00277347 -2.61626e-06)
(-0.0155956 0.00233485 -1.95891e-06)
(-0.0110068 0.00163057 5.70044e-09)
(-0.00800136 0.000262548 -0.000351518)
(-0.00370567 0.00213549 0.000261705)
(0.00303263 0.00507633 0.000290469)
(0.00131335 0.00516943 -0.00013903)
(0.00057164 0.000588272 -4.50121e-06)
(0.0028708 0.000985676 0.000113027)
(0.00486745 0.000588459 0.000108178)
(0.00619445 -0.00216178 -0.000204241)
(0.00438644 -0.000688066 -0.000265532)
(0.00513459 -0.0011413 0.000163379)
(0.00750166 -0.00270926 -0.000164715)
(0.00667399 -0.00289235 -0.000167906)
(0.00552854 0.00101296 2.68824e-06)
(0.00633271 0.0029495 8.78185e-05)
(0.00753836 0.000732955 0.000125186)
(0.00737894 0.00237402 0.000148191)
(0.00639635 0.00125651 0.00013992)
(0.0053314 -0.00402872 -0.000267221)
(0.00439499 -0.00386875 -0.000140791)
(0.00582297 0.000783428 1.12506e-05)
(0.0122326 0.00251566 -2.24072e-05)
(0.0204655 -0.000619895 -6.42364e-05)
(0.0252122 -0.00316311 1.22823e-05)
(0.0255989 -0.00278616 -0.000169674)
(0.0264929 -0.00080083 -0.000544438)
(0.0320531 0.00151846 2.28716e-05)
(0.0352043 0.000565059 0.000185699)
(0.0291314 -0.000248912 -8.61719e-05)
(0.0238478 0.0018218 -0.000300429)
(0.0282784 0.00188676 1.30553e-05)
(0.0338708 -0.00168507 2.09046e-08)
(0.0337194 -0.00248087 -0.000125277)
(0.0330959 -0.000262261 0.000178843)
(0.0337969 0.000568752 8.75515e-05)
(0.0310939 -0.000113475 -1.23726e-05)
(-0.000962713 -0.00702201 -2.0169e-06)
(-0.00991335 -0.00627429 -6.52389e-05)
(-0.00792892 -0.0100306 0.000332956)
(-0.0106216 -0.00682202 -0.000970756)
(-0.0137777 -0.0101708 -0.00525438)
(0.00287489 0.0176927 -0.0274057)
(-0.0109402 0.0512565 0.00193163)
(-0.0115772 0.0207179 0.00107448)
(-0.0230167 0.0139071 0.000711884)
(-0.0221744 0.00975412 -2.55049e-05)
(-0.0223993 0.00631128 -9.98452e-06)
(-0.0227572 0.00562254 -5.91714e-06)
(-0.0150696 0.000169108 -2.56648e-06)
(-0.0127213 -7.24901e-05 -2.99203e-06)
(-0.0122684 0.00148931 -1.44763e-06)
(-0.00687249 8.09782e-05 0.000268441)
(0.00147202 0.00214715 0.000163961)
(0.00347108 0.00233099 -0.000168699)
(-0.00281177 -0.000577023 0.000434279)
(-0.00190591 0.00029408 3.32372e-06)
(0.00327992 0.00135371 -0.000202767)
(0.00307696 0.000286878 -0.000156918)
(0.00471357 -0.000939522 -4.55821e-05)
(0.00606458 -0.000749332 0.000293913)
(0.00532186 0.00164159 -5.35259e-06)
(0.00547388 0.000286968 -0.000100169)
(0.00850105 -0.00163342 0.000188552)
(0.00961539 0.00152456 -9.67862e-06)
(0.00580865 0.00106517 0.00030035)
(0.00608174 -0.000507682 0.000219269)
(0.00651673 0.000117956 -9.49027e-05)
(0.0024148 -0.00138949 -0.000189819)
(0.00348681 -0.0033662 -0.000340459)
(0.00869144 -0.00215863 8.94983e-05)
(0.0104871 0.00195562 0.000614307)
(0.0110322 0.00431004 5.68498e-05)
(0.0163468 0.000888477 -0.000266817)
(0.0237225 -0.00182711 1.00515e-05)
(0.0270198 -0.00102763 -3.5026e-06)
(0.0292239 0.000967175 -0.000119409)
(0.0322847 0.00186538 0.00016336)
(0.0325358 -0.00149874 0.000187532)
(0.0295542 -0.0041088 -0.00024189)
(0.0267492 -0.000789618 -8.32023e-05)
(0.0271815 0.00216565 0.000116795)
(0.0309146 -5.97125e-05 -5.4208e-05)
(0.0344839 -0.00108805 -0.00018467)
(0.0354236 0.0011322 0.000164262)
(0.0336229 0.00143063 4.56416e-05)
(0.0303741 -0.000459407 -2.95822e-05)
(3.09726e-05 -0.00592037 -0.000553012)
(-0.00298697 -0.0076235 -0.000210315)
(-0.00329055 1.12897e-06 -4.76305e-05)
(0.00735082 -0.00787035 0.00189858)
(-0.0042229 0.012428 -0.00111156)
(-0.0437096 -0.0153991 -0.00854059)
(0.0352665 0.103587 -0.00146612)
(-0.0124682 0.0289321 0.00147126)
(-0.0279314 0.0111269 -0.000128137)
(-0.0254559 0.00769642 -0.000499727)
(-0.0239173 0.00304981 -2.57747e-06)
(-0.0245311 0.00263381 -4.25129e-06)
(-0.0216462 0.00177798 -5.94439e-08)
(-0.0139428 -0.000456221 8.62173e-07)
(-0.0108183 0.00143951 6.87156e-07)
(-0.00717539 0.00193525 1.02389e-06)
(-0.000895688 0.00188343 -1.11366e-05)
(-0.000375619 -0.00170936 -0.000171782)
(-0.00122837 -0.00475193 -0.00021219)
(0.00298572 0.000541608 -0.000182837)
(0.00285885 0.00158076 0.000210164)
(0.00200007 -9.05918e-05 3.68908e-07)
(0.00489988 0.000705461 0.000107659)
(0.00761412 0.000418737 0.000425379)
(0.00642578 0.00243112 -0.000292657)
(0.00340754 0.00285623 -0.000173963)
(0.00822665 0.00138169 0.000154292)
(0.00889666 0.000419313 8.44653e-05)
(0.00379005 -0.00236901 0.000239664)
(0.00635604 -0.0021566 -0.000550956)
(0.00627295 -0.00142973 -7.82546e-05)
(0.00203965 -0.00204651 0.000130809)
(0.00437306 -0.000857677 -0.000131002)
(0.0110503 -0.000192587 6.5144e-05)
(0.0139067 0.00153561 6.46e-05)
(0.0108922 0.0035442 -0.0004384)
(0.0127949 0.00228805 -0.000109758)
(0.0228212 0.000393194 4.85669e-05)
(0.0290932 0.00134442 0.000137237)
(0.0301074 0.00256319 0.00028718)
(0.028966 0.000525467 0.000113999)
(0.0277376 -0.00388062 -0.000145469)
(0.0300245 -0.00589983 -0.000250118)
(0.0316897 -0.00281454 0.000131286)
(0.0291846 0.000722369 5.95358e-05)
(0.0298053 0.000979028 -0.000166178)
(0.035213 0.00165303 -0.000111408)
(0.036242 0.00342888 0.000308881)
(0.0318046 0.00194266 -8.38636e-06)
(0.0298834 -0.000572732 -1.93123e-05)
(-0.00305652 0.000977375 -0.000615226)
(-0.00248597 -0.00355466 0.000279068)
(-0.00824146 -0.00278189 0.00088938)
(-0.0107209 -0.0104099 0.000540051)
(-0.0125682 -0.0501439 0.00471275)
(0.0520016 0.00450001 0.0440629)
(0.0132069 0.0398327 0.108644)
(-0.0625475 -0.000218188 0.000346652)
(-0.0494712 -0.00242555 -0.000364247)
(-0.0322749 -0.00202001 0.000696383)
(-0.0287211 -0.00167986 0.000146735)
(-0.0243457 -0.0031858 -0.000286439)
(-0.0189324 1.81941e-05 -0.000210927)
(-0.0131387 0.00022021 9.07632e-07)
(-0.0092805 0.00229547 0.000231892)
(-0.00631763 0.00222278 0.000160491)
(-0.00308692 0.00261136 -1.18951e-05)
(-0.00482099 -0.000504847 5.71181e-06)
(1.35399e-05 -0.00258399 -0.000226624)
(0.00600578 -0.000741249 5.94508e-05)
(0.00248601 0.000279387 -5.92517e-06)
(0.00198539 -0.000387798 -0.000215944)
(0.00534869 0.00086043 -0.000207778)
(0.0082244 0.0017508 0.000207405)
(0.00836707 0.00171741 -0.000122836)
(0.00415968 0.00361171 0.000130733)
(0.00545511 0.0027324 0.000440404)
(0.00492431 -0.00113879 1.93238e-05)
(0.00259214 -0.00245296 -0.000204629)
(0.00725577 -0.00190609 -0.000146723)
(0.00665136 -0.00146623 0.000211449)
(0.00313071 -0.00149696 6.69551e-05)
(0.00580267 -0.000623969 -0.000452734)
(0.0116836 0.000671574 1.14179e-07)
(0.0151581 0.0011466 4.62011e-05)
(0.0119682 0.00158864 -7.75013e-07)
(0.0124064 0.00286889 0.000233003)
(0.0225461 0.00238912 4.25629e-06)
(0.0297328 0.00145873 -6.34559e-06)
(0.0281965 0.00124588 0.000118442)
(0.0242277 -0.0013661 -0.00010057)
(0.0245073 -0.00450706 -0.000203286)
(0.030892 -0.0052283 0.000133805)
(0.0350269 -0.00322676 0.000152176)
(0.0319198 -0.00123301 -7.27664e-05)
(0.0320785 0.000802298 2.95585e-06)
(0.0375474 0.0031439 0.000221884)
(0.0357819 0.00470467 0.000187955)
(0.0286197 0.0025682 -7.97344e-05)
(0.0286659 0.000224618 -0.000162343)
(-0.00561153 0.000458446 0.00152873)
(-0.00766745 0.00085593 0.000438582)
(-0.0118433 -0.00268468 -0.000178727)
(-0.0399809 0.00315289 -0.00165895)
(-0.0387927 0.0100493 -0.0106281)
(-0.0717379 -0.00369251 0.008707)
(0.0855631 0.00546766 -0.0110957)
(-0.0746224 -0.0251488 -0.00205826)
(-0.0303432 -0.0122935 -0.000234411)
(-0.0245098 -0.00909087 8.9967e-05)
(-0.0253715 -0.00399904 -0.00015463)
(-0.0224002 -0.00176344 -0.000222271)
(-0.0173914 0.000941759 0.000266795)
(-0.0110932 0.00154218 3.26883e-06)
(-0.00831719 0.000563788 -0.000173369)
(-0.00677953 0.000782385 -9.24389e-05)
(-0.00430907 0.00069728 1.92785e-06)
(-0.00686945 0.000942552 0.00014822)
(-0.00151941 -0.000278294 -9.23333e-05)
(0.00656267 -0.00256325 -0.00017553)
(0.00329876 -0.00225899 -1.16892e-05)
(0.00272871 -0.000626396 -0.000449831)
(0.00757291 0.000359161 -6.18311e-06)
(0.00868434 0.00249542 0.000361479)
(0.0087532 0.00162823 0.000205208)
(0.00467195 0.00176903 -1.7405e-05)
(0.00228433 0.00187797 -0.000150522)
(0.00241772 -0.00130241 -0.000138409)
(0.00283279 -0.000779922 -3.53763e-06)
(0.00758824 -4.55598e-05 0.000147186)
(0.00678322 -0.000776507 0.000162489)
(0.00309345 -0.00151833 -0.000236933)
(0.00708387 -0.00104004 -0.000152868)
(0.0132618 0.00144902 3.46538e-05)
(0.0150522 0.00119112 0.000142044)
(0.0130451 3.90679e-06 -6.46676e-05)
(0.0137926 0.00220718 1.91482e-06)
(0.0210575 0.00294591 6.92094e-07)
(0.0276646 0.000311302 -5.06394e-07)
(0.0265735 -0.00131698 0.000244626)
(0.0217745 -0.00211938 -0.000172256)
(0.0229133 -0.00281556 -0.000209236)
(0.0316282 -0.00226191 0.000111032)
(0.0366844 -0.00176056 3.50623e-05)
(0.0342216 -0.00159357 -0.000123056)
(0.0352769 0.000547363 7.1842e-06)
(0.0400897 0.00281531 0.000389225)
(0.0355186 0.00295503 0.0001316)
(0.0262048 0.00215877 -0.000249533)
(0.0263942 0.00136104 -6.71659e-05)
(-0.00256936 -0.00062192 0.00017162)
(-0.00644467 0.00565291 -0.00138107)
(-0.00536825 0.00332755 -0.000629011)
(-0.000324802 0.0074554 0.00141145)
(0.00511934 0.0304251 -0.00105914)
(0.0143249 0.038489 -0.00943352)
(-0.0157369 -0.0364704 -0.00600712)
(-0.0325541 -0.0159991 -0.000995897)
(-0.0292975 -0.00858788 0.000189073)
(-0.0218973 -0.0083583 1.4223e-05)
(-0.0195628 -0.005501 -1.08615e-05)
(-0.0181685 -0.00305224 -2.92346e-06)
(-0.0148027 -0.000129231 2.35302e-06)
(-0.0136128 8.78471e-05 -9.19609e-07)
(-0.0102285 -0.00406832 1.55991e-06)
(-0.00615085 -0.000521233 1.3138e-07)
(-0.00288636 -0.00152694 -3.61973e-06)
(-0.00604206 -0.000876086 -0.000177525)
(-0.00436945 0.00150703 -0.000128944)
(0.00353441 -0.00225916 6.7101e-05)
(0.00490994 -0.00296799 5.96257e-05)
(0.00525842 -0.000708696 2.88329e-06)
(0.0092529 -0.000372742 -6.56121e-06)
(0.00980703 0.00126024 3.30088e-06)
(0.00745987 0.000831982 -0.00022268)
(0.00447125 0.000237135 -0.000122521)
(0.00161177 0.000791422 -3.06145e-05)
(0.00160595 -0.000960455 0.000249396)
(0.00416316 0.00130976 0.000167111)
(0.00725878 0.00158642 6.33377e-05)
(0.00481127 -0.00102588 -2.66466e-05)
(0.00280345 -0.00136687 -0.000151022)
(0.00951388 0.000278899 -4.729e-06)
(0.0144692 0.00200291 1.06575e-05)
(0.0133504 0.000515476 -9.95952e-06)
(0.0132421 -0.00174644 -4.84335e-05)
(0.016082 0.000845502 -2.72822e-07)
(0.0201719 0.00294429 -5.07954e-06)
(0.0244048 0.000539339 -1.69067e-05)
(0.0251585 -0.002176 0.000219205)
(0.0223545 -0.00164784 -0.000104543)
(0.0243309 0.000497904 -0.000203625)
(0.0322114 0.00153094 8.65432e-05)
(0.0358628 0.000276051 0.000138763)
(0.0348076 -0.000564033 -9.42711e-05)
(0.0375902 0.000552765 7.62638e-06)
(0.0405549 0.000927898 0.000339905)
(0.0349609 -0.000655825 2.71326e-05)
(0.026628 0.00053195 -0.000101863)
(0.0242633 0.00166983 0.000112731)
(0.00224107 0.00866686 -0.000685067)
(-0.00276265 0.00802616 0.0002538)
(-0.00958744 0.00826064 0.00117604)
(0.00176041 0.0108987 0.000131904)
(-0.0108085 -0.00160387 0.00481964)
(-0.00938521 -0.0399783 0.000728935)
(0.0697807 -0.0376715 -0.0335921)
(-0.0198776 -0.0193077 0.000376725)
(-0.0208225 -0.00985604 0.000476075)
(-0.0206557 -0.0045614 -9.72839e-06)
(-0.0187419 -0.00441542 -7.83502e-07)
(-0.0156861 -0.00205022 2.53534e-06)
(-0.0134697 -0.00263973 -1.21468e-06)
(-0.0160227 -0.00224782 -1.68804e-06)
(-0.0090695 -0.00246567 2.5566e-06)
(-0.00360871 -0.000665929 -1.0348e-07)
(-0.00475111 -0.00418124 0.000171551)
(-0.00307445 -0.00386994 -0.000273354)
(-0.00325596 -7.51981e-05 0.000292965)
(0.000973752 -0.00015952 -1.26324e-05)
(0.00524115 -0.00176416 -0.000111724)
(0.00597166 -0.000922858 0.000116323)
(0.0100364 0.000605262 8.83097e-05)
(0.0101891 -0.00023953 2.45941e-06)
(0.007475 9.16823e-05 -0.000113748)
(0.00462297 0.000502678 0.000117399)
(0.000784601 -0.000165456 0.000112264)
(0.00307057 -0.000321906 -0.000157825)
(0.00601453 0.00104782 -5.36438e-05)
(0.00466576 0.00120829 0.000131246)
(0.00309528 -0.00166154 -0.00014799)
(0.00472698 -0.000288844 -0.000143774)
(0.011296 0.00261129 6.75514e-05)
(0.013554 0.00172283 -1.59656e-05)
(0.0103648 -0.000959884 -1.17369e-06)
(0.0134631 -0.00239714 2.64561e-05)
(0.0196552 -0.00035282 5.24426e-05)
(0.0206693 0.00206017 1.76944e-05)
(0.0212635 0.00121547 3.1656e-06)
(0.0238433 -0.000958425 -6.1113e-05)
(0.0251183 -0.000460094 -7.63623e-05)
(0.0268847 0.00283412 5.6029e-06)
(0.0313477 0.00380109 0.000189554)
(0.0340657 0.000994911 1.74042e-05)
(0.0345692 -0.000206341 -6.39516e-05)
(0.0371404 0.000700808 1.79835e-06)
(0.0385768 -0.000944068 1.86652e-05)
(0.0350267 -0.00326916 -2.62017e-05)
(0.0291119 -0.0017193 0.000103887)
(0.0236364 0.000563498 0.00016635)
(-0.00336568 0.00824965 0.000911318)
(-0.00695138 0.00579838 -0.000671303)
(-0.00176545 0.0115882 -0.00165615)
(-0.0128421 0.0156161 -0.000366394)
(-0.035967 0.00428962 0.00481801)
(-0.0247249 0.0134462 -0.00151784)
(0.0152757 -0.0321789 0.00175832)
(8.90846e-05 -0.0129144 0.000319002)
(-0.010874 -0.00711454 0.00037034)
(-0.0151091 -0.00421098 -2.45246e-06)
(-0.0164247 -0.0024663 1.86551e-06)
(-0.0159544 -0.00220239 -7.90597e-07)
(-0.0150495 -0.00507001 -2.24649e-06)
(-0.0133965 -0.00231039 1.58229e-06)
(-0.00824855 0.000100492 -0.000142593)
(-0.00830164 -0.00254182 0.000260137)
(-0.00688655 -0.00331621 0.000462658)
(-0.000903561 -0.00257097 -0.000741018)
(0.000264261 -0.0018739 9.34427e-05)
(0.00142122 0.00111196 0.000199852)
(0.0039592 -0.000474301 -8.29451e-05)
(0.00822088 3.90909e-06 0.000111357)
(0.0101047 0.00155894 3.17539e-05)
(0.00916761 -0.00158668 -1.69828e-06)
(0.00838846 -0.000975102 -3.38281e-05)
(0.00414933 -0.000130615 0.000217576)
(0.000582702 2.34988e-05 -0.000260248)
(0.00312501 0.000408433 -0.000132746)
(0.00607467 -0.000597088 9.89987e-05)
(0.00386799 0.00021083 7.29687e-05)
(0.00294467 -0.000733937 -9.64812e-05)
(0.00814597 0.00101638 -9.91203e-05)
(0.0120236 0.00406359 0.000466164)
(0.0100034 0.00137903 4.79123e-05)
(0.00820258 -0.00239141 -0.000211916)
(0.0140054 -0.00302807 0.000120762)
(0.0216545 -0.00209188 1.96442e-05)
(0.022129 -0.000160269 -2.80847e-05)
(0.0206303 0.00124609 -4.32216e-05)
(0.0230675 0.000669193 -8.5532e-05)
(0.0270979 0.000407363 9.04163e-05)
(0.029654 0.00352317 6.34573e-05)
(0.0299074 0.00479941 -6.58514e-05)
(0.0308548 0.000861583 -0.000178823)
(0.0344415 -0.000976121 1.00162e-05)
(0.0366642 0.000535501 8.38353e-05)
(0.0355913 -0.000996029 -7.94351e-05)
(0.0339955 -0.00388209 -9.7768e-06)
(0.0314187 -0.00328841 9.6624e-05)
(0.0257037 -0.00088653 -7.3704e-06)
(-0.000831526 -0.00292978 -0.000652993)
(0.00142122 -7.12329e-05 0.000330907)
(0.00267962 0.00795864 0.00197087)
(0.00959127 0.00810742 -0.000191981)
(-0.0408552 0.0339539 0.00253604)
(-0.0560427 0.0958889 -0.00769341)
(0.013066 0.00641726 0.00116014)
(-0.000820077 -0.000602656 0.000393741)
(-0.00995883 -0.0014158 3.5588e-05)
(-0.0148505 -0.00123141 8.30069e-07)
(-0.0162355 -0.00121503 8.21599e-05)
(-0.0189458 -0.00154624 -0.000190053)
(-0.0135985 -0.00285348 -0.000211222)
(-0.00956058 -0.001173 0.000100856)
(-0.0093652 -0.0011682 -2.18869e-05)
(-0.00787795 -0.00231425 0.000487964)
(-0.00478559 -0.000534954 -0.000114749)
(-0.00127164 -0.000439571 -0.000141879)
(0.00135064 -6.40097e-05 8.85782e-05)
(0.00271775 0.00159289 -0.000101475)
(0.00385905 0.00145672 -0.000361982)
(0.00851466 0.00105139 -0.000178291)
(0.00804274 0.000491899 2.52191e-05)
(0.00702608 -0.00198656 2.82204e-05)
(0.00929563 -0.00300973 0.000182793)
(0.00587086 -0.00241867 0.000144241)
(0.00145935 -0.000201854 -8.90957e-05)
(0.00229317 0.000192049 -1.8089e-06)
(0.00576945 -0.000848384 9.14869e-05)
(0.00449252 0.000260911 -7.59099e-05)
(0.00410519 0.00149376 -0.000329295)
(0.0107253 0.00259718 -2.59806e-06)
(0.0117427 0.00331514 0.000281134)
(0.00548472 0.000889488 -0.000145352)
(0.0048604 -0.00255028 -0.000141897)
(0.0138394 -0.00366662 0.000273299)
(0.0232416 -0.00352252 0.000208792)
(0.024842 -0.00223616 5.30323e-06)
(0.022299 -8.50323e-05 0.000152969)
(0.0227959 0.000513043 4.83405e-05)
(0.0286902 0.000535547 2.08179e-05)
(0.0323729 0.003297 4.22798e-06)
(0.0280151 0.00460957 -0.000108073)
(0.0268489 0.00175839 -0.000129816)
(0.0341652 -0.000809214 6.35883e-05)
(0.0371119 -0.000542128 0.000205037)
(0.0330533 -0.0010434 -0.000184634)
(0.0321648 -0.00285249 -5.38806e-05)
(0.0328574 -0.00295088 8.67877e-05)
(0.0288544 -0.00123833 -9.55572e-07)
(1.29592e-05 -0.00145505 0.000519551)
(0.00686601 -0.00156143 0.000351126)
(0.00806391 -0.00220502 -0.00187562)
(0.0126555 -0.00516987 0.00341477)
(-0.00243662 -0.0080968 -0.00103695)
(0.0275778 0.0125028 -0.0251293)
(0.00235145 0.010713 -0.000303659)
(-0.00788768 0.00835032 0.000838487)
(-0.0120198 0.00444505 -6.30413e-07)
(-0.0150751 0.00505041 -2.72592e-06)
(-0.0169701 0.00350456 0.000416768)
(-0.0181644 0.00298115 0.000454132)
(-0.0146959 0.00515166 -0.000469907)
(-0.0113991 0.0021497 0.000148328)
(-0.00984139 0.000209114 8.57338e-06)
(-0.00757412 0.000707501 -0.00085258)
(-0.00460772 8.88503e-05 5.54982e-06)
(-0.000330286 0.00151133 0.000343325)
(0.00285223 0.00352234 0.000466941)
(0.00332508 0.00167127 -0.000589133)
(0.00332915 0.00191781 -0.000201523)
(0.00697266 0.000905263 0.000362831)
(0.0061516 -0.00106526 -1.33758e-05)
(0.00476947 -0.000584101 -0.000349613)
(0.00796668 -0.00309921 0.000244369)
(0.00765028 -0.00398734 0.000217578)
(0.00380332 -0.00190475 -0.000202553)
(0.00228402 0.000115391 1.47688e-07)
(0.00618267 0.000466942 -0.000510863)
(0.00691982 0.000464127 -0.000175792)
(0.00592304 0.00294127 0.000359278)
(0.0104684 0.00309606 0.000462675)
(0.00992318 -0.000402699 0.000408896)
(0.00259793 -0.00184655 -0.000211842)
(0.00241104 -0.00123243 -1.20081e-05)
(0.0127518 -0.00116151 -7.32034e-05)
(0.0234377 -0.00256544 -0.000241544)
(0.026393 -0.00330055 0.000246137)
(0.0239916 -0.00212508 0.00034607)
(0.0238667 -0.000623681 -0.000405424)
(0.0306384 0.000837788 3.1373e-06)
(0.0347846 0.00204811 0.000169499)
(0.0279835 0.00295715 0.000427817)
(0.0240392 0.00279236 -0.000325238)
(0.0315257 0.000614195 -5.88044e-05)
(0.0363434 -0.00183151 0.00023089)
(0.0327468 -0.00198086 -1.62672e-05)
(0.0316624 -0.00132863 -0.000587758)
(0.0334061 -0.00129787 8.26258e-05)
(0.0307967 -0.000582388 6.4131e-05)
(-0.00106284 -0.000320901 0.00133822)
(0.00097263 -0.00109066 -0.00236769)
(-0.0025433 -0.013625 0.000420188)
(-0.00298122 -0.0139241 0.00142803)
(-0.0118895 -0.0260739 0.00358225)
(-0.164985 -0.0155279 0.0463328)
(0.00977301 0.0156761 -0.00305913)
(-0.00996466 0.0155477 -0.000682363)
(-0.0144186 0.0124841 -7.02818e-05)
(-0.0162063 0.00725143 -2.53057e-06)
(-0.0189592 0.0066415 -4.17242e-06)
(-0.0170106 0.00275866 -2.16327e-06)
(-0.0146644 0.00281844 -3.50661e-06)
(-0.0157077 0.00235277 -5.99494e-06)
(-0.0111355 0.00169275 -3.25679e-06)
(-0.00807485 0.000412671 -0.000676877)
(-0.00381207 0.0023021 0.000643637)
(0.00299255 0.00538291 0.000401621)
(0.00145752 0.00554066 -0.000330939)
(0.000663956 0.000751386 -4.16985e-06)
(0.00285605 0.00107654 0.000289132)
(0.00478301 0.00064337 0.000221531)
(0.00617213 -0.00206745 -0.000381038)
(0.00447071 -0.000465451 -0.000533579)
(0.00509951 -0.000978795 0.00044475)
(0.00740509 -0.00264884 -0.000292226)
(0.0066012 -0.00279168 -0.000340238)
(0.00533444 0.00108843 2.02172e-06)
(0.00625063 0.0030847 8.20055e-05)
(0.00758645 0.000760002 0.000303009)
(0.00738746 0.00229536 0.000242926)
(0.00643835 0.00118103 0.000286322)
(0.00543702 -0.00413751 -0.000708063)
(0.00446476 -0.00399362 -0.000251371)
(0.00579331 0.000762104 7.92e-05)
(0.0121903 0.00248595 3.8189e-05)
(0.0204963 -0.000643603 -0.000108473)
(0.0252853 -0.00316481 3.39636e-05)
(0.0255969 -0.00274004 -0.000300345)
(0.0265061 -0.000709858 -0.000990758)
(0.0320858 0.00157202 4.35687e-05)
(0.0350881 0.000572118 0.000392464)
(0.0289692 -0.000302403 -0.000363256)
(0.0238553 0.00177701 -0.000538936)
(0.0283653 0.00187473 1.97294e-05)
(0.0338745 -0.00165701 4.43975e-06)
(0.0336723 -0.00247876 -0.000405816)
(0.0330536 -0.000271102 0.000274234)
(0.0337629 0.000515334 0.000237895)
(0.031091 -0.000165062 -2.72063e-05)
(-0.000960094 -0.00718134 -0.000240159)
(-0.00976968 -0.00630756 -0.000695342)
(-0.0079614 -0.0102677 0.00153206)
(-0.0102245 -0.00685357 -0.00140733)
(-0.0130718 -0.00759084 -0.00922253)
(-0.0105512 0.00544358 0.035425)
(-0.0226261 0.0436655 -0.0161641)
(-0.00768752 0.0227387 0.00189556)
(-0.0223334 0.0147033 0.0020262)
(-0.0223542 0.0100186 -4.438e-06)
(-0.0225783 0.00638636 -9.01302e-06)
(-0.0229308 0.00560512 -6.21766e-06)
(-0.0151994 0.000135701 -3.77036e-06)
(-0.012804 -9.81503e-05 -4.27644e-06)
(-0.0122663 0.00148791 -2.611e-06)
(-0.00680878 0.000134876 0.000543619)
(0.00160481 0.00220068 0.000416016)
(0.00371204 0.00246604 -0.000534609)
(-0.00294478 -0.000622172 0.000568489)
(-0.00225166 0.000282804 -3.17986e-06)
(0.00319237 0.00138896 -0.000588976)
(0.0030399 0.000355558 -0.000228448)
(0.00477037 -0.000766249 -8.08107e-05)
(0.00612767 -0.000655174 0.000627974)
(0.00523582 0.00154836 5.63153e-05)
(0.00538555 0.000242558 -0.000127549)
(0.00847861 -0.00163223 0.000601659)
(0.00962615 0.00155897 -8.39174e-06)
(0.00576607 0.00127728 0.000479955)
(0.00593663 -0.000387599 0.000376566)
(0.00644571 0.000264308 -0.000205373)
(0.00242251 -0.00125259 -0.000659698)
(0.00346145 -0.00331078 -0.000598271)
(0.00872782 -0.00215721 0.000152347)
(0.0105073 0.0019572 0.000973602)
(0.0109888 0.00428419 0.000188084)
(0.0163747 0.000887337 -0.000429348)
(0.0237755 -0.00186557 2.34556e-05)
(0.027062 -0.00107273 3.37802e-05)
(0.0292568 0.000942161 -0.000194431)
(0.0322369 0.00180909 0.000446359)
(0.0324416 -0.00155622 0.000585111)
(0.0294933 -0.00406217 -0.00080376)
(0.0267584 -0.000677845 -0.000181051)
(0.0272287 0.00215302 0.000255476)
(0.0309043 -0.000117423 -0.000138338)
(0.0344824 -0.00112322 -0.000419255)
(0.0354028 0.00117586 0.000284121)
(0.0335373 0.0014433 7.63116e-05)
(0.0303598 -0.000447056 -6.29659e-05)
(6.13217e-05 -0.00601601 -0.00101592)
(-0.00286145 -0.00768678 -0.000369986)
(-0.0032185 -0.000251281 7.24578e-05)
(0.0073574 -0.00787247 0.00319814)
(-0.00563772 0.0111161 -0.00659019)
(-0.060803 -0.0438203 -0.0165709)
(0.06423 0.197156 -0.0137888)
(-0.00735145 0.0366778 0.0030359)
(-0.0302947 0.0116912 9.33996e-05)
(-0.0265842 0.00764174 -0.000901315)
(-0.0244598 0.00281627 2.32083e-06)
(-0.0248214 0.002403 -1.23967e-05)
(-0.021782 0.00162793 -6.67092e-06)
(-0.0140122 -0.000546462 -1.80897e-06)
(-0.0108462 0.00140271 -2.1102e-07)
(-0.00717918 0.00185687 -2.85104e-06)
(-0.000900168 0.00177607 7.67198e-05)
(-0.000540094 -0.00185999 -0.00032005)
(-0.00126724 -0.00502276 -0.000279871)
(0.0031779 0.000545349 -0.000325985)
(0.00294351 0.00163047 0.000446969)
(0.00208751 -1.92555e-05 2.11582e-06)
(0.00490876 0.000742678 0.000303865)
(0.00736524 0.000418536 0.000719594)
(0.00621687 0.00236338 -0.000536168)
(0.00342826 0.00282614 -0.000295608)
(0.00825221 0.00142095 0.000393694)
(0.00896679 0.000461609 0.000116388)
(0.00381547 -0.00235125 0.000363726)
(0.00632246 -0.00207663 -0.000838294)
(0.00630319 -0.00123443 -0.000144217)
(0.0019688 -0.00188874 0.000314226)
(0.00430987 -0.000796328 -0.000139185)
(0.0110536 -9.2474e-05 0.000117915)
(0.0138441 0.00161618 0.000224697)
(0.0108472 0.00363946 -0.000874074)
(0.0128108 0.00239682 -0.000259866)
(0.0228395 0.000423253 0.000124744)
(0.0291079 0.00131505 0.000280085)
(0.030107 0.00250367 0.00050219)
(0.0289583 0.000442964 0.000234695)
(0.0277502 -0.00390435 -0.000309117)
(0.030074 -0.0058169 -0.00057581)
(0.0316236 -0.00273681 0.000287883)
(0.0290598 0.000717559 0.000144769)
(0.0297804 0.000949139 -0.000317892)
(0.035292 0.0016623 -0.000123501)
(0.0362588 0.00337719 0.000701838)
(0.0317313 0.00193907 -2.35744e-05)
(0.0298493 -0.000557201 -4.2182e-05)
(-0.00296481 0.00105582 -0.000879039)
(-0.00248338 -0.00358726 0.000484219)
(-0.00819587 -0.00305381 0.00127795)
(-0.0110148 -0.0106854 0.000918721)
(-0.0176713 -0.0509942 -0.00525256)
(0.0138951 -0.0644028 0.0594021)
(0.391602 0.358305 0.17438)
(-0.052239 -0.00669929 -0.00126815)
(-0.0583646 -0.00592759 -0.000186918)
(-0.0334316 -0.00344919 0.000811555)
(-0.0291085 -0.00240165 0.000292068)
(-0.0244086 -0.0035601 -0.00125526)
(-0.0188839 -0.000186608 -0.000343744)
(-0.0130783 9.11093e-05 -2.54222e-06)
(-0.00926275 0.00219485 0.00051502)
(-0.00634206 0.00217071 0.000363917)
(-0.0030445 0.00256895 -6.8893e-05)
(-0.00478454 -0.000578728 2.89712e-06)
(7.23627e-05 -0.00249632 -0.000368422)
(0.00606014 -0.000714353 0.000156849)
(0.00248244 0.00039082 -1.09542e-06)
(0.00193205 -0.000448386 -0.000761073)
(0.00531529 0.000766254 -0.000390222)
(0.00815541 0.00174521 0.000451162)
(0.00824321 0.00187179 -0.000270403)
(0.00420543 0.00378398 0.000192435)
(0.00552453 0.00281829 0.000634479)
(0.00490936 -0.00107039 3.5859e-05)
(0.00259776 -0.00243546 -0.000422986)
(0.00733387 -0.00178628 -0.000261266)
(0.00667935 -0.00140158 0.000399805)
(0.00297224 -0.00151229 0.000203687)
(0.0057067 -0.000560586 -0.000966651)
(0.0117452 0.000738553 1.51644e-06)
(0.0151729 0.00122314 0.000133448)
(0.0119614 0.00168639 -3.11181e-06)
(0.0123548 0.00293678 0.000310511)
(0.0224277 0.002454 9.57063e-06)
(0.029664 0.00151111 -2.49571e-05)
(0.028164 0.00128496 0.000333205)
(0.0242249 -0.00139237 -0.000186393)
(0.0246203 -0.00452444 -0.000626204)
(0.0309578 -0.00531505 0.000411246)
(0.0349268 -0.00331761 0.000318621)
(0.0318328 -0.0012354 -0.000147572)
(0.0320864 0.0008099 8.74139e-06)
(0.0375189 0.00313374 0.000635418)
(0.0357454 0.00463321 0.000536644)
(0.0286184 0.00251003 -0.000158418)
(0.0286371 0.000224038 -0.00037749)
(-0.0056477 0.000488014 0.00208285)
(-0.00790856 0.000689951 0.000944507)
(-0.0120853 -0.00276328 -0.000191467)
(-0.040152 0.00302914 -0.002583)
(-0.0399426 0.00946598 -0.0144937)
(-0.0664823 -0.0225738 0.0148938)
(0.68127 -0.269166 -0.263495)
(-0.065752 -0.0338358 -0.00115076)
(-0.0266504 -0.0144852 -0.000366408)
(-0.0221665 -0.0100832 0.000154199)
(-0.0246001 -0.00445039 -0.000228221)
(-0.0220472 -0.00196658 -0.000324573)
(-0.0172218 0.000817304 0.000389946)
(-0.0110333 0.00146011 -1.65038e-06)
(-0.00824906 0.00048834 -0.000476144)
(-0.00671093 0.000755968 -0.000138411)
(-0.00434134 0.000698184 -2.76289e-07)
(-0.00687131 0.000927675 0.000331489)
(-0.00143281 -0.000281367 -0.000157715)
(0.00678427 -0.00270679 -0.000338555)
(0.00327357 -0.00252367 2.87498e-05)
(0.00255884 -0.000778055 -0.0006145)
(0.00765108 0.00035716 -2.04879e-05)
(0.00874678 0.00245951 0.000704264)
(0.00876798 0.00168714 0.000361923)
(0.00460845 0.00184372 -0.000122881)
(0.0021813 0.0018979 -0.000235659)
(0.00240316 -0.00127656 -0.000304055)
(0.00292331 -0.000792131 -5.8986e-06)
(0.00761498 -8.87604e-05 0.00031002)
(0.00664514 -0.000918492 0.000456187)
(0.00302153 -0.00160546 -0.000444664)
(0.00712397 -0.000989685 -0.000275193)
(0.0132822 0.001474 6.11672e-05)
(0.0150283 0.00118458 0.000472495)
(0.0129902 3.52121e-05 -0.00012507)
(0.0137682 0.00220727 7.36115e-06)
(0.0210576 0.00297934 3.18804e-06)
(0.0276483 0.000370902 1.06066e-06)
(0.0264759 -0.00126696 0.000368892)
(0.0216965 -0.00208879 -0.000283245)
(0.02285 -0.00286084 -0.000396527)
(0.0315856 -0.00238303 0.00036477)
(0.0367233 -0.00185716 5.35038e-05)
(0.0342194 -0.00163372 -0.000256962)