/*--------------------------------*- C++ -*----------------------------------*\
| =========                 |                                                 |
| \\      /  F ield         | OpenFOAM: The Open Source CFD Toolbox           |
|  \\    /   O peration     | Version:  5.0                                   |
|   \\  /    A nd           | Web:      www.OpenFOAM.org                      |
|    \\/     M anipulation  |                                                 |
\*---------------------------------------------------------------------------*/
FoamFile
{
    version     2.0;
    format      ascii;
    class       surfaceScalarField;
    location    "0.2";
    object      phi;
}
// * * * * * * * * * * * * * * * * * * * * * * * * * * * * * * * * * * * * * //

dimensions      [0 3 -1 0 0 0 0];

internalField   nonuniform List<scalar> 
12667
(
1.43771e-09
8.3801e-12
-5.58371e-11
1.43702e-09
-2.4354e-11
2.81854e-11
1.35212e-09
6.85458e-11
5.59142e-11
2.56817e-10
-9.58013e-11
1.97433e-10
1.5366e-10
4.9322e-10
3.38952e-10
-1.67804e-11
-9.92374e-11
1.01917e-10
6.09319e-11
6.10342e-11
1.09349e-10
-2.59021e-10
5.29838e-11
1.99011e-12
2.03862e-10
-3.84967e-11
2.14868e-10
1.40444e-11
-8.98251e-12
-3.79175e-11
-7.25756e-11
-7.07439e-11
1.41585e-09
-2.24955e-12
-3.20961e-11
-2.59915e-10
-2.51754e-10
-4.42855e-10
-4.24397e-10
1.42252e-09
-3.68419e-12
-1.28951e-12
1.42739e-09
-3.79784e-12
1.80178e-13
1.43134e-09
-3.02486e-12
-3.05772e-14
1.43414e-09
-2.19434e-12
1.06996e-13
1.43627e-09
-1.48455e-12
2.92164e-13
1.43674e-09
-1.21414e-12
1.84597e-12
1.43789e-09
-7.30708e-13
-7.15271e-14
1.43832e-09
-3.24896e-13
1.54491e-13
1.43869e-09
-3.3894e-13
-3.17602e-14
1.43919e-09
-4.00228e-13
1.28862e-13
1.439e-09
-8.80382e-13
7.21435e-13
1.43926e-09
-3.70128e-14
-8.05319e-13
1.43951e-09
4.09238e-14
-9.62799e-13
1.43964e-09
1.76063e-13
2.46768e-13
1.43954e-09
2.69637e-13
-4.24886e-13
1.43955e-09
-1.87601e-13
8.47976e-14
1.43949e-09
2.27966e-13
-1.37656e-14
1.43949e-09
3.27516e-13
-1.74189e-13
1.43924e-09
1.35075e-13
3.69094e-14
1.43915e-09
-8.91481e-16
-1.27268e-14
1.4395e-09
-1.40685e-13
9.45778e-14
1.43948e-09
1.17769e-13
-3.91709e-14
1.43946e-09
-1.624e-13
1.79078e-14
1.43958e-09
-2.39113e-13
2.4257e-15
1.43938e-09
1.97421e-13
1.88596e-13
1.43915e-09
2.96931e-13
-2.47975e-13
1.43926e-09
-3.66969e-14
-2.13913e-14
1.43945e-09
-1.64716e-13
-2.16812e-13
1.43957e-09
-1.08246e-13
-2.56397e-13
1.43955e-09
1.22439e-13
8.37168e-15
1.43938e-09
1.80963e-13
-4.99167e-14
1.43928e-09
9.84056e-14
3.2351e-14
1.43942e-09
-4.7737e-14
-3.21593e-14
1.43942e-09
4.32326e-14
-1.16205e-13
1.43942e-09
-9.09326e-14
7.25385e-15
1.43951e-09
-1.65943e-13
8.83303e-15
1.43955e-09
-8.48057e-14
2.68997e-13
1.43944e-09
1.65271e-13
7.41698e-14
1.43934e-09
1.1137e-13
7.98593e-16
1.43937e-09
1.36004e-15
-4.6226e-14
1.43946e-09
-1.38358e-14
5.87007e-14
-7.2184e-14
2.66779e-14
1.46862e-09
8.18465e-12
-7.95391e-11
1.45118e-09
-2.55136e-11
1.8604e-11
1.4919e-09
2.22581e-11
5.56478e-12
2.90602e-10
-9.34417e-11
6.47202e-11
2.24796e-10
5.18652e-10
3.9077e-10
-1.28107e-11
2.12586e-10
3.85689e-12
8.6969e-11
-5.65472e-11
-8.63521e-11
1.49872e-10
2.17464e-11
-2.87185e-11
-3.15717e-11
-4.71623e-12
1.8925e-10
-9.75658e-12
-4.74394e-12
-2.8457e-11
-5.84279e-11
-5.15771e-11
1.40297e-09
-2.66999e-11
-3.13954e-11
-2.45773e-10
-2.54152e-10
-4.14237e-10
-4.32959e-10
1.41923e-09
-1.90855e-11
-8.59682e-13
1.42737e-09
-1.22021e-11
2.71292e-13
1.43223e-09
-7.90323e-12
1.67911e-14
1.43505e-09
-5.03514e-12
1.63436e-14
1.43675e-09
-3.21653e-12
5.65509e-15
1.43764e-09
-2.07172e-12
-5.22626e-15
1.43812e-09
-1.21234e-12
7.32601e-15
1.43878e-09
-8.96106e-13
-1.09751e-13
1.43868e-09
-1.7804e-13
-5.98424e-14
1.43905e-09
-1.00905e-12
2.46373e-13
1.43961e-09
-7.69937e-13
-6.65185e-13
1.43947e-09
1.48748e-13
-4.88436e-14
1.43936e-09
1.51701e-13
-3.42167e-15
1.4396e-09
-1.66964e-13
1.11395e-13
1.43959e-09
1.47262e-13
1.31241e-13
1.43917e-09
2.03323e-13
2.63822e-14
1.43943e-09
3.8328e-14
-6.83661e-14
1.43954e-09
-4.85261e-14
2.693e-13
1.4395e-09
2.27962e-13
-5.32985e-14
1.43948e-09
7.99567e-14
-6.57316e-14
1.43933e-09
3.0437e-13
-2.94979e-13
1.43959e-09
-2.375e-13
1.02688e-13
1.43952e-09
-8.58905e-14
-1.48096e-14
1.43916e-09
7.48199e-14
4.95959e-14
1.43918e-09
3.08593e-14
1.52185e-13
1.43952e-09
4.73083e-13
-5.17972e-13
1.43949e-09
-1.32915e-13
1.28928e-13
1.4395e-09
-1.94895e-13
1.42273e-14
1.4393e-09
3.13619e-14
6.20323e-14
1.43942e-09
7.35154e-14
-7.18604e-14
1.43944e-09
1.96543e-13
-3.11162e-14
1.43944e-09
1.31519e-13
-3.62735e-14
1.43942e-09
-4.32081e-14
1.48927e-14
1.43962e-09
-1.71347e-13
1.81925e-14
1.43943e-09
7.52471e-14
1.86037e-14
1.43927e-09
-8.42227e-14
7.53253e-14
1.43937e-09
-1.66774e-13
-1.40422e-14
1.43948e-09
8.58253e-14
-3.11808e-14
1.43948e-09
-1.28546e-13
2.41552e-13
1.43938e-09
6.60855e-14
3.22326e-14
1.43948e-09
-1.19314e-13
9.85554e-15
-3.32766e-14
5.04651e-14
1.42986e-09
8.28057e-12
-4.10717e-11
1.38242e-09
-1.53641e-11
3.72916e-11
1.36805e-09
4.9933e-11
-1.33042e-11
1.50431e-10
-4.64829e-11
1.64062e-10
2.45529e-10
3.73065e-10
3.88003e-10
-4.87498e-12
1.89854e-10
3.74873e-11
-7.20391e-11
-5.39772e-12
-3.62907e-11
9.68772e-11
-2.54791e-12
-5.26419e-11
-3.90158e-11
1.87538e-12
1.96246e-10
1.71891e-11
-3.19154e-11
-7.16369e-11
-5.27098e-11
-3.17045e-12
-7.79281e-12
-6.01398e-12
-3.05626e-12
1.42271e-09
-3.92623e-11
-3.06723e-11
-2.51773e-10
-2.59646e-10
-4.23478e-10
-4.44567e-10
1.43243e-09
-2.75088e-11
-1.30501e-12
1.43558e-09
-1.5576e-11
2.12532e-13
1.43743e-09
-9.68519e-12
-5.02452e-14
1.43829e-09
-5.92844e-12
3.19359e-14
1.43882e-09
-3.72928e-12
-7.58894e-15
1.43911e-09
-2.36562e-12
-1.94993e-14
1.43937e-09
-1.49494e-12
3.90893e-15
1.43953e-09
-1.036e-12
-5.34563e-15
1.43992e-09
-6.02478e-13
5.81803e-14
1.43931e-09
-5.6071e-13
1.60913e-13
1.43862e-09
-1.46638e-12
1.3767e-12
1.43889e-09
-1.51095e-13
2.3303e-14
1.4394e-09
-3.61089e-13
7.7225e-15
1.43938e-09
-7.45904e-14
-6.7575e-14
1.43983e-09
-3.82067e-13
8.34199e-14
1.43968e-09
6.45609e-13
-2.92384e-13
1.43977e-09
-9.42766e-14
4.46451e-14
1.43894e-09
6.47961e-13
1.25945e-13
1.43939e-09
-2.86853e-13
6.49966e-14
1.43954e-09
2.16086e-14
-8.62196e-14
1.43947e-09
5.11677e-14
3.22242e-13
1.43932e-09
-5.3721e-14
-3.10738e-14
1.4392e-09
1.00308e-15
3.31815e-14
1.43919e-09
1.06883e-13
-2.73638e-14
1.43955e-09
-1.3883e-13
-1.86907e-13
1.43948e-09
-1.33502e-13
6.77666e-13
1.43944e-09
6.72809e-15
-9.67409e-14
1.4394e-09
-1.95432e-13
3.64366e-14
1.43936e-09
2.20005e-13
-1.44227e-13
1.43928e-09
6.77105e-14
8.42193e-14
1.43931e-09
6.0227e-13
-4.3415e-13
1.43951e-09
-8.51666e-14
1.48251e-14
1.43959e-09
-7.00726e-14
-5.1347e-14
1.4396e-09
-3.06537e-13
1.22076e-13
1.43945e-09
1.24125e-13
1.01055e-13
1.43933e-09
1.02089e-13
-6.1693e-14
1.43934e-09
-2.05716e-13
2.51386e-14
1.43941e-09
-1.38307e-13
1.51404e-13
1.43947e-09
5.63952e-14
-2.40568e-13
1.43959e-09
-1.80614e-14
-4.02343e-14
1.43947e-09
8.27846e-15
-6.84637e-16
8.39898e-14
6.01951e-14
1.46706e-09
4.60814e-12
-7.45012e-11
1.44376e-09
-1.66213e-11
2.45608e-11
1.46119e-09
3.76125e-11
-5.11152e-12
2.70409e-10
-5.95841e-11
4.93366e-11
2.68375e-10
4.6089e-10
4.25285e-10
-1.91315e-11
2.26784e-10
8.98734e-12
5.37629e-11
-3.91223e-11
-4.27884e-11
2.50273e-11
-2.80329e-11
8.49148e-11
-5.8694e-11
5.22836e-12
2.94439e-13
1.84003e-11
3.47708e-11
1.45563e-09
-2.7783e-11
-3.17703e-11
-2.74862e-10
-2.58313e-10
-4.69944e-10
-4.3224e-10
1.45022e-09
-2.01745e-11
-1.89802e-12
1.44595e-09
-1.16564e-11
3.43371e-13
1.4437e-09
-7.37864e-12
-9.12273e-14
1.4422e-09
-4.43039e-12
1.80544e-14
1.4412e-09
-2.76495e-12
1.23448e-16
1.44056e-09
-1.71198e-12
6.95152e-15
1.44015e-09
-1.06953e-12
4.83622e-15
1.43981e-09
-6.77716e-13
-1.62625e-14
1.43939e-09
5.32183e-13
-7.12249e-13
1.43952e-09
-3.63776e-13
-3.27303e-13
1.43963e-09
-6.13112e-14
-1.52662e-12
1.4398e-09
-2.92632e-13
-2.73932e-14
1.43944e-09
2.6324e-14
-2.1549e-14
1.43933e-09
-1.97082e-14
5.47344e-14
1.43908e-09
-5.76631e-14
-7.03536e-14
1.43926e-09
2.19997e-13
2.4573e-13
1.43908e-09
7.22526e-14
1.22892e-14
1.4399e-09
-1.5472e-14
-1.63358e-13
1.43965e-09
1.89066e-13
-2.20497e-13
1.43969e-09
1.44241e-13
-1.66487e-13
1.43956e-09
3.2841e-13
-1.37907e-13
1.43944e-09
9.28209e-14
-3.43236e-14
1.43946e-09
8.81711e-15
-2.15826e-14
1.43958e-09
-9.22975e-15
-3.55866e-15
1.4396e-09
-3.55047e-13
1.92482e-13
1.43947e-09
-5.22211e-14
4.50635e-14
1.43945e-09
3.87653e-14
-1.09286e-14
1.4393e-09
2.24611e-14
-6.33787e-14
1.43928e-09
1.29234e-13
1.08218e-13
1.43934e-09
4.08656e-14
-3.32719e-14
1.43959e-09
-9.99338e-14
4.53422e-13
1.43963e-09
-1.28419e-13
6.4189e-15
1.43931e-09
2.66772e-13
-1.87554e-14
1.43927e-09
3.02979e-13
-5.73524e-13
1.43928e-09
9.52796e-14
1.87047e-14
1.4396e-09
6.20024e-13
-8.3177e-13
1.43941e-09
-6.47046e-14
4.82371e-14
1.4393e-09
1.34997e-13
-1.64291e-13
1.43945e-09
-6.55695e-14
-2.37418e-14
1.43947e-09
-1.08755e-14
-3.33807e-14
1.43947e-09
2.78252e-14
-1.51852e-14
1.04223e-13
5.686e-14
1.44416e-09
4.5679e-13
-5.11206e-11
1.41632e-09
-2.8598e-12
1.4073e-11
1.40321e-09
1.99084e-11
3.08206e-11
1.72074e-10
-1.75033e-11
1.50187e-10
2.70696e-10
3.00199e-10
4.67965e-10
-1.75729e-11
1.25898e-10
6.96761e-11
-5.92422e-12
-4.0304e-11
-2.45625e-11
4.53699e-12
3.93563e-11
2.09766e-11
-2.97617e-10
1.32161e-11
-4.1908e-12
2.46703e-10
4.18917e-11
1.47959e-09
-7.05819e-12
-4.09725e-11
-2.64804e-10
-2.70865e-10
-4.53078e-10
-4.70539e-10
1.46417e-09
-3.91234e-12
-8.62208e-13
1.4548e-09
-3.2775e-12
1.00351e-12
1.44916e-09
-1.66634e-12
-7.14361e-14
1.44558e-09
-7.13361e-13
-1.31371e-13
1.4432e-09
-8.11628e-14
-2.89495e-13
1.44178e-09
-2.96695e-13
-2.98093e-14
1.44089e-09
-2.98764e-13
1.25366e-13
1.44034e-09
-1.66989e-13
6.05947e-14
1.44033e-09
-1.74789e-13
7.20879e-13
1.43973e-09
4.01359e-13
-1.73805e-13
1.43926e-09
3.15773e-13
8.23478e-14
1.43931e-09
3.89008e-13
-7.28188e-13
1.43943e-09
-5.65652e-14
-3.64676e-14
1.43947e-09
-1.00144e-12
9.42306e-13
1.43935e-09
7.08261e-14
1.16986e-15
1.43947e-09
-8.02605e-14
1.79477e-13
1.43948e-09
2.91716e-13
-2.33899e-13
1.4396e-09
-2.7719e-14
-1.11395e-13
1.43953e-09
2.50531e-14
2.3815e-13
1.43923e-09
1.43249e-13
2.98301e-13
1.43945e-09
6.51103e-14
4.87757e-14
1.43949e-09
-1.39258e-14
5.96929e-14
1.4395e-09
5.55366e-14
-5.21327e-14
1.43965e-09
-1.24574e-13
-3.82244e-14
1.43943e-09
-6.23803e-15
-1.24381e-13
1.43954e-09
-6.84483e-14
-9.57506e-14
1.43957e-09
-1.99176e-13
2.07335e-13
1.43976e-09
-2.42958e-13
7.94931e-14
1.43919e-09
2.5242e-12
-1.82995e-12
1.43948e-09
-1.89753e-13
-5.4149e-14
1.43939e-09
-2.04772e-14
1.2508e-14
1.43926e-09
-5.63551e-15
4.59186e-15
1.43967e-09
-3.40674e-13
1.96641e-13
1.43941e-09
6.30818e-14
4.99503e-13
1.43956e-09
1.55117e-13
-2.13558e-13
1.4393e-09
4.8083e-14
8.40639e-13
1.43932e-09
-4.31367e-14
-5.07679e-14
1.4394e-09
9.55471e-14
-3.65382e-14
1.43953e-09
-2.10683e-13
1.68993e-14
1.43909e-09
2.15484e-12
-1.72244e-12
1.43936e-09
-2.08538e-13
-3.35042e-14
-3.75763e-15
2.29223e-14
1.47797e-09
-1.23013e-11
-7.63207e-11
1.45566e-09
4.93954e-12
1.4504e-11
1.53931e-09
-2.72544e-11
-3.64826e-11
2.04545e-10
5.65465e-11
4.05742e-11
3.28428e-10
3.43696e-10
5.48015e-10
-3.1716e-11
3.03767e-11
-2.50348e-11
2.30923e-10
2.5268e-11
-2.76404e-12
4.33915e-11
5.01579e-12
-7.09123e-11
-1.90738e-10
3.55781e-12
-1.07138e-12
1.44559e-10
4.36925e-11
1.4936e-09
3.01863e-11
-3.92176e-11
-2.81913e-10
-2.66617e-10
-4.88753e-10
-4.54374e-10
1.47156e-09
1.96894e-11
-1.48927e-12
1.45796e-09
1.05132e-11
-2.13735e-13
1.45036e-09
6.08602e-12
-1.73169e-13
1.44594e-09
3.5442e-12
1.70662e-13
1.44344e-09
2.14583e-12
2.39901e-13
1.44187e-09
1.28148e-12
1.89368e-14
1.44096e-09
7.71277e-13
-1.37999e-13
1.44039e-09
4.25701e-13
-3.46894e-14
1.43996e-09
2.74246e-13
-1.31149e-14
1.43993e-09
9.43281e-13
-5.14548e-13
1.44026e-09
1.0922e-14
-3.48156e-14
1.43971e-09
2.65479e-13
6.72747e-13
1.43931e-09
6.20983e-13
-2.6775e-13
1.43896e-09
2.82611e-13
-9.3645e-13
1.43929e-09
-2.64107e-13
7.45864e-15
1.43925e-09
2.6212e-14
-6.57493e-14
1.43938e-09
-4.19204e-14
2.02831e-13
1.43944e-09
6.39619e-13
-7.26575e-13
1.43939e-09
1.52653e-13
-7.86652e-14
1.4395e-09
1.20983e-14
2.38223e-14
1.43942e-09
1.21097e-13
2.09591e-14
1.43949e-09
-5.4959e-14
-2.86515e-14
1.43962e-09
-6.47248e-14
-9.15356e-15
1.43926e-09
1.83311e-13
5.46748e-14
1.43964e-09
-1.08579e-12
6.98815e-13
1.4394e-09
-8.43433e-14
2.58427e-13
1.43936e-09
6.87335e-14
-2.33052e-13
1.43927e-09
-1.4266e-13
-1.19812e-14
1.43986e-09
-7.47439e-15
1.94742e-12
1.43958e-09
2.26409e-14
6.26177e-14
1.43955e-09
1.45207e-14
9.98672e-16
1.43948e-09
6.62346e-14
-8.70461e-15
1.43932e-09
-4.89852e-14
-1.30533e-13
1.43932e-09
9.63332e-14
-2.70162e-14
1.43943e-09
2.45288e-14
1.42327e-14
1.43945e-09
-9.12548e-14
1.1862e-13
1.43939e-09
3.03592e-14
-1.02634e-14
1.43948e-09
-3.44219e-14
3.98787e-14
1.4392e-09
-3.6442e-13
4.31989e-13
1.4395e-09
6.1847e-14
1.79839e-12
1.43933e-09
-6.96242e-14
2.60582e-14
-1.51367e-13
3.95188e-14
1.42994e-09
-1.24949e-11
-4.08617e-11
1.43666e-09
-7.46428e-13
-1.0309e-12
1.46806e-09
-5.65115e-11
-2.13852e-12
2.27317e-10
2.23981e-11
7.41878e-11
2.74105e-10
4.58291e-10
4.68297e-10
5.12214e-11
1.93925e-10
-3.13515e-12
-1.46875e-11
-1.16924e-11
-1.72309e-11
1.79293e-11
9.6646e-12
1.33214e-12
-9.59001e-11
-1.19202e-11
2.57786e-12
7.25741e-11
3.26682e-11
1.46015e-09
3.8452e-11
-3.18378e-11
-2.58185e-10
-2.76147e-10
-4.30653e-10
-4.71554e-10
1.45435e-09
2.6894e-11
-1.44959e-12
1.44905e-09
1.54475e-11
3.28514e-13
1.44567e-09
9.54177e-12
-5.00479e-14
1.44336e-09
5.81205e-12
5.93046e-14
1.44195e-09
3.5911e-12
-1.73537e-14
1.44102e-09
2.20916e-12
-3.15506e-14
1.44039e-09
1.34767e-12
4.46144e-14
1.43998e-09
8.71268e-13
-1.76582e-14
1.43974e-09
5.31641e-13
-7.97369e-15
1.4397e-09
1.0767e-13
8.76194e-13
1.43954e-09
3.81987e-14
1.29133e-13
1.43936e-09
4.27294e-13
1.63848e-14
1.43971e-09
-5.12036e-14
3.1762e-13
1.43986e-09
1.69444e-13
-2.81464e-14
1.43943e-09
6.94652e-14
9.43753e-14
1.43956e-09
4.36938e-14
-1.44514e-13
1.4394e-09
2.08604e-13
-8.8757e-14
1.43926e-09
-6.12055e-14
8.34442e-13
1.43931e-09
1.64493e-13
-5.61373e-14
1.43932e-09
-1.40892e-13
1.40451e-13
1.43948e-09
8.355e-14
-1.20625e-13
1.43956e-09
-1.22463e-13
-1.61854e-14
1.43932e-09
1.47592e-13
3.33753e-14
1.43954e-09
1.90188e-14
-5.50539e-14
1.43928e-09
-1.01768e-13
-7.2264e-13
1.43945e-09
-1.09294e-13
-1.52803e-13
1.43957e-09
-4.47538e-14
-5.57105e-15
1.43932e-09
1.04292e-13
6.45143e-15
1.43947e-09
-1.63544e-14
-1.40266e-13
1.43931e-09
5.60527e-13
-3.78243e-13
1.43941e-09
-7.10847e-14
-1.8967e-14
1.4394e-09
8.97794e-14
-9.47286e-15
1.43962e-09
-3.34121e-13
6.183e-14
1.43934e-09
1.26777e-12
-8.88762e-13
1.43938e-09
1.66846e-13
-1.79001e-13
1.43948e-09
-2.51066e-13
5.37622e-14
1.4394e-09
-2.30412e-13
3.44686e-13
1.4395e-09
-1.27871e-13
-7.41742e-15
1.43953e-09
3.41668e-14
-4.28796e-13
1.43943e-09
1.73745e-13
-1.53689e-14
1.43938e-09
-6.24832e-14
4.98665e-14
-1.31619e-13
2.94924e-14
1.45478e-09
-5.26731e-12
-7.31161e-11
1.41946e-09
6.01487e-12
2.85519e-11
1.44582e-09
-6.99655e-11
-1.28994e-11
1.80216e-10
5.97832e-11
1.29496e-10
2.49527e-10
3.40642e-10
5.08556e-10
2.63912e-11
8.22836e-11
-4.96878e-11
1.21229e-10
1.76877e-11
-1.09192e-11
4.6437e-11
-1.1382e-11
-4.18249e-11
-4.96432e-11
-3.92862e-12
5.02827e-12
1.73407e-11
3.12029e-11
1.4304e-09
3.28549e-11
-3.3064e-11
-2.63642e-10
-2.52159e-10
-4.5283e-10
-4.23126e-10
1.43664e-09
2.17784e-11
-1.11518e-12
1.43826e-09
1.36356e-11
2.25858e-13
1.43912e-09
8.70362e-12
-4.11961e-15
1.43942e-09
5.51904e-12
-2.86002e-14
1.43951e-09
3.47811e-12
-3.80867e-14
1.43958e-09
2.15023e-12
2.85397e-14
1.43956e-09
1.42655e-12
-4.24445e-14
1.43955e-09
8.93001e-13
-1.69786e-14
1.43949e-09
1.13544e-12
-5.56263e-13
1.43977e-09
-2.75059e-13
1.06004e-13
1.43961e-09
4.69211e-13
-2.68369e-13
1.4394e-09
4.99256e-13
1.37624e-13
1.43927e-09
1.54044e-13
-7.34975e-14
1.43927e-09
2.05377e-13
-3.01616e-14
1.43918e-09
-4.07269e-13
5.6019e-13
1.43919e-09
5.18727e-14
-1.06733e-14
1.43946e-09
-1.34494e-13
7.24245e-14
1.43953e-09
-8.10675e-14
-4.67008e-14
1.43941e-09
1.74909e-13
1.07041e-13
1.43956e-09
-1.04985e-13
-1.9031e-13
1.43947e-09
2.03989e-13
-2.94738e-14
1.43931e-09
-3.40944e-14
6.92189e-14
1.43939e-09
6.93965e-14
5.97425e-15
1.43936e-09
2.31628e-14
2.56024e-14
1.43953e-09
-2.49732e-13
-2.4006e-14
1.43944e-09
5.83401e-14
-7.42785e-14
1.43935e-09
4.8455e-14
-7.41864e-15
1.43965e-09
-1.11943e-13
-8.68541e-14
1.43939e-09
4.40298e-14
2.06418e-13
1.43923e-09
4.96158e-13
2.18777e-13
1.4393e-09
-1.59338e-13
1.97199e-14
1.43953e-09
-1.13852e-13
-2.75734e-14
1.43937e-09
-8.69585e-14
-8.54396e-14
1.43973e-09
-4.9047e-14
9.54723e-13
1.43938e-09
4.28164e-13
9.50193e-14
1.43931e-09
-8.29488e-14
-9.77456e-14
1.43941e-09
1.45511e-14
-3.44454e-13
1.43925e-09
2.06562e-14
7.30633e-15
1.43967e-09
4.06233e-13
-7.89193e-13
1.43961e-09
2.19654e-13
7.63713e-15
1.43941e-09
1.59372e-13
-1.8167e-14
2.9385e-14
8.92114e-14
1.45726e-09
6.4881e-12
-8.01312e-11
1.44007e-09
2.98432e-11
-6.63671e-12
1.40621e-09
-5.32449e-11
1.71437e-11
1.65169e-10
1.09057e-10
2.04063e-10
2.51179e-10
3.0294e-10
4.33589e-10
5.69517e-11
1.71631e-10
-1.28755e-11
-5.05404e-11
6.55048e-12
-2.3013e-11
1.00519e-10
-6.68386e-12
-7.73734e-11
-3.62248e-11
-3.75199e-12
2.04891e-10
1.09485e-11
-8.18476e-12
-3.37449e-11
-6.98357e-11
-6.40978e-11
1.40682e-09
7.36313e-12
-3.13983e-11
-2.54952e-10
-2.45915e-10
-4.34691e-10
-4.14358e-10
1.42218e-09
7.28444e-12
-8.60988e-13
1.42936e-09
6.16042e-12
2.87668e-13
1.43355e-09
4.56322e-12
-5.30143e-14
1.43586e-09
3.15887e-12
3.78714e-15
1.43721e-09
2.14339e-12
3.72781e-14
1.43815e-09
1.22669e-12
1.77447e-15
1.43864e-09
9.13697e-13
-7.11216e-16
1.43871e-09
1.19201e-12
-3.68275e-13
1.43909e-09
1.81805e-13
5.69608e-13
1.43898e-09
6.94098e-14
-2.38672e-13
1.43923e-09
8.00073e-14
1.35617e-13
1.43978e-09
3.13776e-13
-3.60749e-13
1.43964e-09
2.89187e-13
1.16966e-14
1.43941e-09
3.78969e-13
5.9199e-14
1.43965e-09
-1.73983e-14
-6.27946e-13
1.43955e-09
1.3957e-13
1.42286e-14
1.43928e-09
-6.12071e-15
1.38683e-13
1.43921e-09
-5.78988e-15
-3.87459e-15
1.43945e-09
-7.12915e-14
1.03429e-14
1.43933e-09
1.2637e-15
1.25478e-14
1.43932e-09
1.57834e-13
5.15375e-14
1.43928e-09
4.36375e-14
-4.03085e-14
1.43949e-09
1.16054e-13
-2.49697e-13
1.43945e-09
3.09735e-14
3.13451e-14
1.43937e-09
-1.46367e-13
-2.25793e-14
1.43943e-09
3.83819e-14
-3.81812e-14
1.43925e-09
2.12206e-13
1.23388e-14
1.43917e-09
4.4673e-13
-4.78464e-13
1.43949e-09
-6.91565e-14
-2.10524e-13
1.43964e-09
1.95263e-13
1.59397e-13
1.43951e-09
-1.09119e-14
-2.13664e-14
1.4395e-09
-7.54387e-14
-2.55392e-14
1.43927e-09
1.44784e-14
1.28402e-13
1.43929e-09
-5.7269e-14
-1.35894e-14
1.43972e-09
-6.61766e-14
6.11168e-14
1.43951e-09
1.34349e-13
-5.79415e-15
1.43945e-09
1.3254e-13
-5.79706e-14
1.43957e-09
-1.33761e-13
3.16894e-14
1.43938e-09
-1.44223e-13
7.46278e-13
1.43947e-09
1.38242e-13
-1.29145e-14
1.43947e-09
1.43985e-13
1.19417e-14
1.29237e-13
2.98527e-14
1.44083e-09
-4.68167e-11
1.44907e-09
1.84636e-11
1.43318e-09
-7.69213e-11
2.40653e-10
-7.4974e-12
3.31666e-10
3.7641e-10
6.0885e-10
3.8861e-12
-1.99516e-11
8.54635e-11
5.33536e-11
3.03727e-11
3.74495e-11
5.00789e-11
5.84034e-11
2.30193e-11
1.06912e-10
-9.54483e-11
-9.28864e-11
-3.26037e-11
3.73686e-12
1.97977e-10
-1.31141e-11
-5.53259e-12
-3.2438e-11
-5.91937e-11
-5.88318e-11
1.4164e-09
-3.21998e-11
-2.52057e-10
-2.59805e-10
-4.24999e-10
-4.42562e-10
1.42323e-09
-1.25921e-12
1.428e-09
1.51774e-13
1.43169e-09
-3.89987e-14
1.43425e-09
-8.55319e-14
1.43583e-09
-3.56666e-13
1.43767e-09
-1.73144e-12
1.43819e-09
5.57809e-14
1.4388e-09
3.23141e-13
1.43896e-09
4.82493e-15
1.43895e-09
-1.69372e-13
1.4394e-09
-1.68153e-14
1.43921e-09
1.09959e-12
1.43918e-09
1.01056e-12
1.43931e-09
-3.01607e-13
1.4393e-09
2.42701e-13
1.43959e-09
-5.89511e-14
1.43951e-09
-8.12378e-14
1.43938e-09
-2.47768e-14
1.43936e-09
2.50737e-14
1.43945e-09
1.12239e-14
1.43934e-09
-2.73405e-14
1.43924e-09
7.78298e-14
1.43936e-09
1.72487e-13
1.43957e-09
-7.01948e-14
1.43927e-09
-2.88165e-14
1.43944e-09
4.85425e-14
1.43957e-09
3.04163e-14
1.43947e-09
7.42585e-13
1.43938e-09
2.63509e-13
1.43949e-09
-3.19838e-14
1.43942e-09
9.65657e-14
1.43928e-09
3.98158e-14
1.43933e-09
-1.03777e-13
1.43927e-09
8.68268e-14
1.43932e-09
-3.43141e-14
1.43953e-09
-1.04799e-14
1.43967e-09
-2.26742e-13
1.43946e-09
-5.28173e-14
1.43929e-09
1.50974e-14
1.43943e-09
1.07244e-14
1.43953e-09
-9.10368e-14
1.975e-14
2.35828e-09
1.40803e-11
6.24771e-11
2.43143e-09
-4.29384e-11
-9.62564e-12
2.35562e-09
1.24689e-10
4.50782e-11
7.73803e-10
-1.80028e-10
3.79792e-11
5.46273e-10
7.34422e-10
6.34609e-10
1.35709e-10
-7.38193e-11
5.86155e-11
1.62472e-10
1.62934e-10
1.59087e-10
1.63461e-10
-2.17757e-10
-1.70077e-10
2.22596e-10
3.04937e-11
1.34887e-10
-1.70441e-10
7.43039e-12
6.40934e-10
3.89179e-11
1.77698e-14
-1.66184e-10
-1.77256e-10
-1.72717e-10
2.3616e-09
-6.38684e-12
3.21623e-11
-6.16128e-10
-5.91919e-10
-6.16126e-10
-5.91918e-10
2.36911e-09
-7.83847e-12
1.29826e-12
2.3784e-09
-7.34776e-12
-1.7255e-13
2.38506e-09
-5.66012e-12
5.87761e-14
2.3899e-09
-4.03852e-12
3.8058e-13
2.39339e-09
-2.75671e-12
5.2608e-13
2.39455e-09
-2.03062e-12
6.67432e-13
2.39635e-09
-1.23236e-12
-5.81999e-14
2.39716e-09
-5.92499e-13
1.42198e-13
2.39767e-09
-5.4922e-13
2.87498e-14
2.39864e-09
-5.15227e-13
-1.19259e-13
2.39847e-09
-9.79275e-13
1.40971e-12
2.39879e-09
4.56633e-15
2.51093e-13
2.39918e-09
7.74968e-14
-5.58566e-13
2.39929e-09
2.35572e-13
-6.44361e-13
2.39915e-09
3.30891e-13
-6.2319e-14
2.39922e-09
-1.96695e-13
3.26929e-15
2.39914e-09
3.34674e-13
-3.74556e-14
2.39898e-09
-1.6651e-14
2.01752e-13
2.39872e-09
2.00947e-13
-1.16725e-14
2.39856e-09
5.2083e-15
8.90555e-15
2.39923e-09
-2.01151e-13
-7.58156e-14
2.39917e-09
7.66039e-14
8.17228e-14
2.39909e-09
-2.47895e-13
4.8618e-14
2.39926e-09
-3.49062e-13
1.16047e-14
2.39894e-09
3.95738e-13
-2.50075e-13
2.39856e-09
-3.99854e-13
3.19221e-13
2.39876e-09
-7.46345e-14
1.43575e-13
2.39901e-09
-2.4158e-13
-4.51056e-13
2.39923e-09
-1.60715e-13
1.43028e-13
2.39914e-09
1.65146e-13
8.51902e-15
2.39897e-09
2.75099e-13
-6.11397e-14
2.39886e-09
1.74484e-13
1.43212e-14
2.399e-09
-7.93821e-14
1.41351e-14
2.39903e-09
-1.12998e-13
1.16368e-13
2.399e-09
-1.0675e-13
2.38587e-14
2.39911e-09
-2.21129e-13
3.06777e-14
2.3991e-09
-1.07325e-13
2.15708e-13
2.3991e-09
2.49727e-13
8.14138e-15
2.39895e-09
1.54156e-13
-8.45344e-15
2.39893e-09
-2.77572e-14
2.11118e-14
2.39901e-09
-4.4651e-14
2.11383e-13
-1.03267e-13
-1.00188e-13
2.37811e-09
1.42645e-11
4.21696e-11
2.40749e-09
-3.74249e-11
-1.62835e-11
2.42348e-09
7.67945e-11
3.74642e-11
6.98557e-10
-1.18724e-10
-1.78331e-11
5.1759e-10
7.26725e-10
5.01857e-10
4.33191e-11
-4.5377e-12
6.56303e-10
1.02017e-10
-9.85443e-11
-1.15968e-10
-2.16674e-11
-1.27788e-10
1.37393e-10
6.14196e-11
6.66111e-11
-1.36778e-10
3.42923e-12
-1.27234e-11
5.62343e-10
-2.5271e-11
-3.09876e-13
-1.2212e-10
-1.42071e-10
-1.26498e-10
2.34043e-09
-4.82052e-11
3.14623e-11
-5.78131e-10
-6.02605e-10
-5.78131e-10
-6.02604e-10
2.36426e-09
-3.34323e-11
8.97414e-13
2.3788e-09
-2.13102e-11
-2.81831e-13
2.38686e-09
-1.37571e-11
2.22304e-14
2.39167e-09
-8.76674e-12
-4.02208e-14
2.39451e-09
-5.60091e-12
-2.88261e-14
2.39603e-09
-3.58843e-12
3.52581e-14
2.39693e-09
-2.1039e-12
-1.63628e-15
2.39785e-09
-1.1591e-12
-4.6976e-13
2.3978e-09
-8.1287e-13
2.48645e-13
2.39843e-09
-8.61989e-13
-2.96794e-14
2.39935e-09
-9.28487e-13
-1.63253e-12
2.39906e-09
2.22869e-13
2.10484e-14
2.3988e-09
3.24032e-13
1.49472e-14
2.39922e-09
-1.52187e-13
8.59725e-14
2.39923e-09
2.34566e-13
2.17094e-13
2.39875e-09
2.83893e-13
2.3632e-14
2.39895e-09
4.37408e-14
2.6933e-14
2.3992e-09
1.85899e-13
-1.8037e-13
2.39909e-09
2.69661e-13
-1.21453e-14
2.399e-09
-4.04877e-14
7.03666e-14
2.3988e-09
-8.35525e-13
5.32064e-13
2.39932e-09
-2.17792e-13
-1.19951e-13
2.39918e-09
-7.68924e-14
-4.34444e-14
2.39878e-09
1.23309e-13
-2.38733e-14
2.3988e-09
6.58436e-13
-1.31432e-13
2.39904e-09
-1.3475e-12
1.93322e-13
2.39905e-09
-2.10382e-13
2.58292e-13
2.3991e-09
-2.64132e-13
-1.8931e-14
2.39889e-09
1.03941e-13
8.14599e-15
2.39903e-09
-8.27581e-14
3.2685e-14
2.39905e-09
2.44003e-13
-1.46371e-14
2.39904e-09
8.52231e-14
6.18481e-14
2.39898e-09
5.5789e-14
-5.76429e-14
2.39918e-09
-2.35491e-13
-6.57954e-14
2.39897e-09
1.35378e-13
-8.76814e-15
2.39886e-09
-1.05131e-15
-3.19209e-14
2.39897e-09
-2.257e-13
-7.40324e-15
2.39907e-09
1.09193e-13
5.21129e-15
2.39904e-09
3.0455e-13
1.2745e-13
2.39895e-09
9.59732e-14
-1.44515e-15
2.39907e-09
-1.50131e-13
-1.10798e-14
-4.80259e-14
-1.23223e-13
2.36671e-09
2.90842e-11
7.73999e-11
2.36545e-09
-5.66338e-12
6.79531e-12
2.3669e-09
1.01095e-10
-3.90623e-11
6.17165e-10
-3.53707e-11
-3.04296e-11
6.13835e-10
6.26103e-10
6.2092e-10
-1.11793e-10
-4.41415e-11
5.9765e-10
-2.99262e-11
2.05372e-10
1.18552e-10
-4.56425e-11
-1.33314e-10
1.23508e-10
1.18413e-12
-6.42881e-11
-1.46406e-10
-2.11753e-11
1.45284e-11
5.87312e-10
2.53118e-12
-1.09494e-10
-1.5047e-10
-1.1111e-10
-1.85107e-11
-1.96514e-11
-1.41446e-11
-1.34115e-11
2.37747e-09
-6.4635e-11
3.07642e-11
-5.91328e-10
-6.19908e-10
-5.91324e-10
-6.19899e-10
2.38765e-09
-4.60917e-11
1.18203e-12
2.39326e-09
-2.65445e-11
-1.91618e-13
2.39596e-09
-1.65399e-11
6.45521e-14
2.39734e-09
-1.01945e-11
2.76207e-14
2.39814e-09
-6.38636e-12
9.10074e-15
2.39858e-09
-4.02572e-12
-3.49311e-14
2.39901e-09
-2.52779e-12
-1.73452e-14
2.39925e-09
-1.72539e-12
3.41683e-13
2.39992e-09
-1.09492e-12
-3.04272e-13
2.39917e-09
2.15685e-13
-1.70543e-13
2.39746e-09
1.00687e-12
1.13477e-12
2.39805e-09
-3.52085e-13
8.16455e-15
2.39894e-09
-4.6289e-13
-9.03847e-14
2.39891e-09
-1.42026e-13
-3.93326e-14
2.39969e-09
-4.10753e-13
-5.14607e-14
2.39942e-09
4.47899e-13
-1.83837e-13
2.39941e-09
3.66146e-14
5.63233e-14
2.39828e-09
1.05406e-12
3.87598e-13
2.39895e-09
-3.63453e-13
2.82323e-14
2.39913e-09
-3.34583e-13
3.06079e-14
2.39907e-09
1.05997e-13
-5.59993e-13
2.3988e-09
-1.06115e-16
2.83284e-14
2.3987e-09
6.28559e-14
-1.19034e-14
2.39865e-09
1.61147e-13
-1.19558e-14
2.39913e-09
-1.68575e-13
1.56427e-13
2.39916e-09
-1.56462e-13
-5.42254e-13
2.39905e-09
4.0596e-14
-2.29778e-13
2.399e-09
-2.05023e-13
2.05182e-14
2.39894e-09
7.28533e-14
-5.24167e-14
2.39884e-09
7.55696e-14
2.57551e-14
2.39888e-09
-4.81086e-14
-1.77229e-13
2.3991e-09
-1.4035e-13
1.53504e-14
2.39915e-09
-1.17504e-13
7.0064e-14
2.39925e-09
-1.81509e-13
-2.50297e-14
2.39904e-09
4.75862e-13
-3.20725e-14
2.39891e-09
1.62091e-13
-9.83084e-14
2.39895e-09
-2.60921e-13
2.46358e-14
2.39898e-09
3.87293e-13
-1.60374e-13
2.39905e-09
6.60356e-14
-7.13919e-14
2.39918e-09
-6.76808e-14
-8.28442e-15
2.39904e-09
1.87526e-14
-2.57207e-14
1.09002e-13
-1.34562e-13
2.37873e-09
1.55963e-11
6.02588e-11
2.41478e-09
-6.3665e-12
-1.0785e-11
2.42466e-09
8.09433e-11
5.14535e-12
6.40285e-10
-5.24659e-11
-3.01559e-14
5.8811e-10
6.58111e-10
6.04625e-10
9.39306e-12
-8.88081e-12
6.58019e-10
5.10616e-11
-6.93139e-11
-1.74065e-10
-9.58113e-11
-1.20523e-10
1.67154e-10
9.81142e-11
1.2513e-10
-2.08436e-10
-2.60684e-11
2.27304e-11
7.32032e-12
1.41277e-11
1.90326e-10
2.43233e-09
-4.30718e-11
3.19076e-11
-6.54318e-10
-6.04514e-10
-6.54319e-10
-6.04469e-10
2.4169e-09
-3.45541e-11
2.00253e-12
2.41094e-09
-1.99058e-11
-3.35246e-13
2.40669e-09
-1.24588e-11
5.10715e-14
2.40407e-09
-7.48506e-12
-4.0441e-14
2.40226e-09
-4.6254e-12
-8.14016e-15
2.40109e-09
-2.84263e-12
1.67872e-14
2.40035e-09
-1.75134e-12
6.4776e-15
2.39972e-09
-1.1226e-12
1.6013e-14
2.39902e-09
-7.17341e-13
-4.00078e-13
2.39902e-09
-4.14527e-13
3.02096e-13
2.39963e-09
-2.023e-13
-9.45502e-13
2.3997e-09
-3.92355e-13
-5.3013e-14
2.39911e-09
1.06664e-13
1.33462e-14
2.39895e-09
2.14127e-14
5.73542e-14
2.39837e-09
-5.3682e-14
1.45556e-13
2.39861e-09
2.89601e-13
1.71303e-13
2.39851e-09
1.24423e-13
1.9428e-14
2.39969e-09
-1.87491e-14
-2.74011e-13
2.39934e-09
-4.8268e-13
2.50317e-13
2.39949e-09
-8.56934e-13
2.09744e-13
2.39916e-09
1.50651e-13
1.49181e-13
2.39905e-09
5.46761e-14
2.47223e-14
2.39904e-09
3.30935e-14
1.13167e-14
2.39917e-09
1.38507e-14
2.19122e-14
2.39922e-09
-1.58543e-13
1.27641e-13
2.39905e-09
1.12401e-13
-5.14864e-14
2.39902e-09
8.48984e-14
-2.49671e-14
2.39889e-09
3.33358e-14
-1.7667e-13
2.39885e-09
1.72738e-13
5.1372e-14
2.39891e-09
6.03069e-14
-7.94173e-14
2.39926e-09
-1.24486e-13
1.82888e-13
2.39931e-09
-1.74546e-13
-5.12562e-15
2.39883e-09
3.02737e-13
3.25217e-14
2.3989e-09
-1.34371e-12
5.22969e-13
2.39873e-09
6.2396e-13
3.80027e-14
2.39915e-09
-1.94882e-12
8.66102e-13
2.39899e-09
-6.63051e-15
-5.29029e-14
2.39889e-09
1.51753e-13
1.78437e-13
2.39907e-09
-1.21933e-13
-2.32639e-14
2.39904e-09
-6.03455e-14
-6.95827e-15
2.39903e-09
1.85511e-14
-1.44484e-15
1.41903e-13
-1.09265e-13
2.3971e-09
2.95554e-12
6.44272e-11
2.41213e-09
3.73329e-12
-1.10551e-11
2.44353e-09
4.63535e-11
3.40061e-11
5.21724e-10
2.05891e-11
6.20648e-11
6.78407e-10
5.9419e-10
6.64277e-10
-2.08328e-11
-3.8337e-11
5.12894e-10
1.0087e-10
-3.28675e-11
2.5293e-10
-9.25609e-11
-2.03169e-10
2.83943e-10
1.17604e-10
-3.58744e-10
-3.52138e-10
-1.04847e-10
-1.11776e-11
5.08914e-12
3.32532e-10
1.30542e-10
2.47196e-09
-1.07854e-11
4.04968e-11
-6.3462e-10
-6.58174e-10
-6.34652e-10
-6.58124e-10
2.44121e-09
-5.41196e-12
6.95583e-13
2.42657e-09
-3.59275e-12
-6.65881e-13
2.41613e-09
-2.14838e-12
6.12327e-14
2.40977e-09
-9.66553e-13
-3.32305e-13
2.40569e-09
-1.00047e-12
2.25706e-13
2.40319e-09
-3.80971e-13
-1.67095e-14
2.40156e-09
-1.38108e-13
1.35989e-13
2.40063e-09
-1.02119e-13
-5.52258e-15
2.40048e-09
-2.32211e-13
3.85427e-13
2.39958e-09
2.14414e-13
7.82791e-14
2.39892e-09
4.03176e-13
1.34354e-13
2.39891e-09
-1.87948e-12
7.68458e-13
2.39906e-09
-1.24293e-13
5.1587e-14
2.39902e-09
5.13952e-13
5.01152e-13
2.39891e-09
2.91721e-14
2.75775e-14
2.39899e-09
5.81435e-13
-1.96633e-13
2.39908e-09
-1.8344e-13
-1.0083e-14
2.39924e-09
-1.27028e-13
-1.63873e-13
2.39915e-09
1.23067e-13
-2.80543e-13
2.39874e-09
5.63719e-15
-1.54966e-13
2.3991e-09
9.39631e-14
-2.5391e-13
2.39917e-09
1.7819e-13
-1.29394e-13
2.39907e-09
4.57971e-14
3.21099e-14
2.39919e-09
-1.61859e-13
1.56533e-14
2.39905e-09
-2.0485e-15
-1.32789e-13
2.3992e-09
-1.68647e-13
3.08289e-14
2.39921e-09
1.72597e-13
1.0995e-13
2.39944e-09
-2.88239e-13
1.67433e-13
2.39865e-09
-3.92342e-13