/*--------------------------------*- C++ -*----------------------------------*\
| =========                 |                                                 |
| \\      /  F ield         | OpenFOAM: The Open Source CFD Toolbox           |
|  \\    /   O peration     | Version:  5.0                                   |
|   \\  /    A nd           | Web:      www.OpenFOAM.org                      |
|    \\/     M anipulation  |                                                 |
\*---------------------------------------------------------------------------*/
FoamFile
{
    version     2.0;
    format      ascii;
    class       volScalarField;
    location    "0.2";
    object      rAU;
}
// * * * * * * * * * * * * * * * * * * * * * * * * * * * * * * * * * * * * * //

dimensions      [-1 3 1 0 0 0 0];

internalField   nonuniform List<scalar> 
4398
(
9.73295e-07
9.7346e-07
9.73553e-07
9.7363e-07
9.02565e-07
5.47658e-08
1.29268e-07
3.9242e-07
3.93663e-07
3.94696e-07
3.9573e-07
3.96762e-07
3.97794e-07
3.98825e-07
3.99856e-07
4.00885e-07
4.01915e-07
4.02943e-07
4.03971e-07
4.04998e-07
4.06024e-07
4.07049e-07
4.08074e-07
4.09098e-07
4.10121e-07
4.11144e-07
4.12166e-07
4.13187e-07
4.14207e-07
4.15227e-07
4.16245e-07
4.17264e-07
4.18281e-07
4.19297e-07
4.20313e-07
4.21327e-07
4.22341e-07
4.23355e-07
4.24367e-07
4.25378e-07
4.2639e-07
4.27399e-07
4.28408e-07
4.29417e-07
4.30424e-07
4.31431e-07
4.32437e-07
4.33442e-07
4.34445e-07
4.36221e-07
9.73287e-07
9.73449e-07
9.73528e-07
9.73554e-07
9.03107e-07
6.90777e-07
1.29269e-07
3.9242e-07
3.93663e-07
3.94696e-07
3.9573e-07
3.96762e-07
3.97794e-07
3.98825e-07
3.99856e-07
4.00885e-07
4.01915e-07
4.02943e-07
4.03971e-07
4.04998e-07
4.06024e-07
4.07049e-07
4.08074e-07
4.09098e-07
4.10121e-07
4.11144e-07
4.12166e-07
4.13187e-07
4.14207e-07
4.15227e-07
4.16245e-07
4.17264e-07
4.18281e-07
4.19297e-07
4.20313e-07
4.21327e-07
4.22341e-07
4.23355e-07
4.24367e-07
4.25378e-07
4.2639e-07
4.27399e-07
4.28408e-07
4.29417e-07
4.30424e-07
4.31431e-07
4.32437e-07
4.33442e-07
4.34445e-07
4.36221e-07
9.73285e-07
9.73431e-07
9.7356e-07
9.7365e-07
9.03174e-07
6.99967e-07
1.29217e-07
3.92419e-07
3.93662e-07
3.94696e-07
3.9573e-07
3.96762e-07
3.97794e-07
3.98825e-07
3.99856e-07
4.00885e-07
4.01915e-07
4.02943e-07
4.03971e-07
4.04998e-07
4.06024e-07
4.07049e-07
4.08074e-07
4.09098e-07
4.10121e-07
4.11144e-07
4.12166e-07
4.13187e-07
4.14207e-07
4.15227e-07
4.16245e-07
4.17264e-07
4.18281e-07
4.19297e-07
4.20313e-07
4.21327e-07
4.22341e-07
4.23355e-07
4.24367e-07
4.25378e-07
4.2639e-07
4.27399e-07
4.28408e-07
4.29417e-07
4.30424e-07
4.31431e-07
4.32437e-07
4.33442e-07
4.34445e-07
4.36221e-07
9.73297e-07
9.7345e-07
9.73552e-07
9.73623e-07
9.03045e-07
6.92963e-07
3.51842e-08
3.92419e-07
3.93662e-07
3.94696e-07
3.9573e-07
3.96762e-07
3.97794e-07
3.98825e-07
3.99856e-07
4.00885e-07
4.01915e-07
4.02943e-07
4.03971e-07
4.04998e-07
4.06024e-07
4.07049e-07
4.08074e-07
4.09098e-07
4.10121e-07
4.11144e-07
4.12166e-07
4.13187e-07
4.14207e-07
4.15227e-07
4.16245e-07
4.17264e-07
4.18281e-07
4.19297e-07
4.20313e-07
4.21327e-07
4.22341e-07
4.23355e-07
4.24367e-07
4.25378e-07
4.2639e-07
4.27399e-07
4.28408e-07
4.29417e-07
4.30424e-07
4.31431e-07
4.32437e-07
4.33442e-07
4.34445e-07
4.36221e-07
9.73295e-07
9.73457e-07
9.73557e-07
9.73633e-07
9.02808e-07
6.98604e-07
4.40887e-08
3.92419e-07
3.93662e-07
3.94696e-07
3.9573e-07
3.96762e-07
3.97794e-07
3.98825e-07
3.99856e-07
4.00885e-07
4.01915e-07
4.02943e-07
4.03971e-07
4.04998e-07
4.06024e-07
4.07049e-07
4.08074e-07
4.09098e-07
4.10121e-07
4.11144e-07
4.12166e-07
4.13187e-07
4.14207e-07
4.15227e-07
4.16245e-07
4.17264e-07
4.18281e-07
4.19297e-07
4.20313e-07
4.21327e-07
4.22341e-07
4.23355e-07
4.24367e-07
4.25378e-07
4.26389e-07
4.27399e-07
4.28408e-07
4.29417e-07
4.30424e-07
4.31431e-07
4.32437e-07
4.33442e-07
4.34445e-07
4.36221e-07
9.73287e-07
9.73457e-07
9.7354e-07
9.73556e-07
9.02567e-07
7.00841e-07
4.78663e-08
3.92417e-07
3.93661e-07
3.94695e-07
3.95729e-07
3.96762e-07
3.97794e-07
3.98825e-07
3.99856e-07
4.00885e-07
4.01915e-07
4.02943e-07
4.03971e-07
4.04998e-07
4.06024e-07
4.07049e-07
4.08074e-07
4.09098e-07
4.10121e-07
4.11144e-07
4.12166e-07
4.13187e-07
4.14207e-07
4.15227e-07
4.16245e-07
4.17264e-07
4.18281e-07
4.19297e-07
4.20313e-07
4.21327e-07
4.22341e-07
4.23355e-07
4.24367e-07
4.25378e-07
4.2639e-07
4.27399e-07
4.28408e-07
4.29417e-07
4.30424e-07
4.31431e-07
4.32437e-07
4.33442e-07
4.34445e-07
4.36221e-07
9.733e-07
9.73428e-07
9.73557e-07
9.73627e-07
9.02811e-07
6.93423e-07
3.88886e-08
3.92418e-07
3.93662e-07
3.94696e-07
3.95729e-07
3.96762e-07
3.97794e-07
3.98825e-07
3.99856e-07
4.00885e-07
4.01915e-07
4.02943e-07
4.03971e-07
4.04998e-07
4.06024e-07
4.07049e-07
4.08074e-07
4.09098e-07
4.10121e-07
4.11144e-07
4.12166e-07
4.13187e-07
4.14207e-07
4.15227e-07
4.16245e-07
4.17264e-07
4.18281e-07
4.19297e-07
4.20313e-07
4.21327e-07
4.22341e-07
4.23355e-07
4.24367e-07
4.25378e-07
4.2639e-07
4.27399e-07
4.28408e-07
4.29417e-07
4.30424e-07
4.31431e-07
4.32437e-07
4.33442e-07
4.34445e-07
4.36221e-07
9.73281e-07
9.73439e-07
9.73552e-07
9.73637e-07
9.02826e-07
6.97901e-07
3.51611e-08
3.92419e-07
3.93662e-07
3.94696e-07
3.9573e-07
3.96762e-07
3.97794e-07
3.98825e-07
3.99856e-07
4.00885e-07
4.01915e-07
4.02943e-07
4.03971e-07
4.04998e-07
4.06024e-07
4.07049e-07
4.08074e-07
4.09098e-07
4.10121e-07
4.11144e-07
4.12166e-07
4.13187e-07
4.14207e-07
4.15227e-07
4.16245e-07
4.17264e-07
4.18281e-07
4.19297e-07
4.20313e-07
4.21327e-07
4.22341e-07
4.23355e-07
4.24367e-07
4.25378e-07
4.2639e-07
4.27399e-07
4.28408e-07
4.29417e-07
4.30424e-07
4.31431e-07
4.32437e-07
4.33442e-07
4.34445e-07
4.36221e-07
9.73264e-07
9.73443e-07
9.73544e-07
9.73591e-07
9.03161e-07
7.00586e-07
1.29269e-07
3.9242e-07
3.93663e-07
3.94696e-07
3.9573e-07
3.96762e-07
3.97794e-07
3.98825e-07
3.99856e-07
4.00885e-07
4.01915e-07
4.02943e-07
4.03971e-07
4.04998e-07
4.06024e-07
4.07049e-07
4.08074e-07
4.09098e-07
4.10121e-07
4.11144e-07
4.12166e-07
4.13187e-07
4.14207e-07
4.15227e-07
4.16245e-07
4.17264e-07
4.18281e-07
4.19297e-07
4.20313e-07
4.21327e-07
4.22341e-07
4.23355e-07
4.24367e-07
4.25378e-07
4.2639e-07
4.27399e-07
4.28408e-07
4.29417e-07
4.30424e-07
4.31431e-07
4.32437e-07
4.33442e-07
4.34445e-07
4.36221e-07
9.73299e-07
9.7346e-07
9.7355e-07
9.73621e-07
9.01708e-07
4.44453e-07
1.29269e-07
3.9242e-07
3.93663e-07
3.94696e-07
3.9573e-07
3.96762e-07
3.97794e-07
3.98825e-07
3.99856e-07
4.00885e-07
4.01915e-07
4.02943e-07
4.03971e-07
4.04998e-07
4.06024e-07
4.07049e-07
4.08074e-07
4.09098e-07
4.10121e-07
4.11144e-07
4.12166e-07
4.13187e-07
4.14207e-07
4.15227e-07
4.16245e-07
4.17264e-07
4.18281e-07
4.19297e-07
4.20313e-07
4.21327e-07
4.22341e-07
4.23355e-07
4.24367e-07
4.25378e-07
4.2639e-07
4.27399e-07
4.28408e-07
4.29417e-07
4.30424e-07
4.31431e-07
4.32437e-07
4.33442e-07
4.34445e-07
4.36221e-07
9.81728e-07
9.81868e-07
9.81917e-07
9.81924e-07
9.31494e-07
8.01956e-08
1.8334e-07
5.04897e-07
5.06386e-07
5.07526e-07
5.08664e-07
5.09801e-07
5.10937e-07
5.1207e-07
5.13202e-07
5.14333e-07
5.15461e-07
5.16589e-07
5.17715e-07
5.18839e-07
5.19961e-07
5.21083e-07
5.22201e-07
5.23319e-07
5.24435e-07
5.25549e-07
5.26662e-07
5.27774e-07
5.28882e-07
5.29991e-07
5.31097e-07
5.32201e-07
5.33304e-07
5.34406e-07
5.35504e-07
5.36603e-07
5.37699e-07
5.38793e-07
5.39886e-07
5.40978e-07
5.42067e-07
5.43155e-07
5.44241e-07
5.45325e-07
5.46409e-07
5.4749e-07
5.48569e-07
5.49647e-07
5.50724e-07
5.53038e-07
9.81706e-07
9.81859e-07
9.81913e-07
9.81944e-07
9.32115e-07
7.63716e-07
1.83344e-07
5.04897e-07
5.06386e-07
5.07526e-07
5.08663e-07
5.09801e-07
5.10936e-07
5.1207e-07
5.13202e-07
5.14333e-07
5.15461e-07
5.16589e-07
5.17715e-07
5.18839e-07
5.19961e-07
5.21083e-07
5.22201e-07
5.23319e-07
5.24435e-07
5.25549e-07
5.26662e-07
5.27774e-07
5.28882e-07
5.29991e-07
5.31097e-07
5.32201e-07
5.33304e-07
5.34406e-07
5.35504e-07
5.36603e-07
5.37699e-07
5.38793e-07
5.39886e-07
5.40978e-07
5.42067e-07
5.43155e-07
5.44241e-07
5.45325e-07
5.46409e-07
5.4749e-07
5.48569e-07
5.49647e-07
5.50724e-07
5.53038e-07
9.81721e-07
9.81866e-07
9.81926e-07
9.8196e-07
9.32326e-07
7.75702e-07
1.83241e-07
5.04895e-07
5.06384e-07
5.07525e-07
5.08663e-07
5.098e-07
5.10936e-07
5.12069e-07
5.13202e-07
5.14333e-07
5.15461e-07
5.16589e-07
5.17715e-07
5.18839e-07
5.19961e-07
5.21083e-07
5.22201e-07
5.23319e-07
5.24435e-07
5.25549e-07
5.26662e-07
5.27774e-07
5.28882e-07
5.29991e-07
5.31097e-07
5.32201e-07
5.33304e-07
5.34405e-07
5.35504e-07
5.36603e-07
5.37699e-07
5.38793e-07
5.39886e-07
5.40978e-07
5.42067e-07
5.43155e-07
5.44241e-07
5.45325e-07
5.46409e-07
5.4749e-07
5.48569e-07
5.49647e-07
5.50724e-07
5.53038e-07
9.81726e-07
9.81871e-07
9.81926e-07
9.81968e-07
9.32506e-07
7.76126e-07
5.18643e-08
5.04893e-07
5.06383e-07
5.07524e-07
5.08663e-07
5.098e-07
5.10936e-07
5.12069e-07
5.13202e-07
5.14333e-07
5.15461e-07
5.16589e-07
5.17715e-07
5.18838e-07
5.19961e-07
5.21083e-07
5.22201e-07
5.23319e-07
5.24436e-07
5.25549e-07
5.26662e-07
5.27774e-07
5.28882e-07
5.29991e-07
5.31097e-07
5.32201e-07
5.33304e-07
5.34406e-07
5.35504e-07
5.36603e-07
5.37699e-07
5.38793e-07
5.39886e-07
5.40978e-07
5.42067e-07
5.43155e-07
5.44241e-07
5.45325e-07
5.46409e-07
5.4749e-07
5.48569e-07
5.49647e-07
5.50724e-07
5.53038e-07
9.81727e-07
9.8187e-07
9.81914e-07
9.81949e-07
9.31653e-07
7.73705e-07
6.55541e-08
5.04895e-07
5.06383e-07
5.07524e-07
5.08662e-07
5.098e-07
5.10936e-07
5.12069e-07
5.13202e-07
5.14333e-07
5.15461e-07
5.16589e-07
5.17715e-07
5.18838e-07
5.19961e-07
5.21083e-07
5.22201e-07
5.23319e-07
5.24435e-07
5.25549e-07
5.26662e-07
5.27774e-07
5.28882e-07
5.29991e-07
5.31097e-07
5.32201e-07
5.33304e-07
5.34406e-07
5.35504e-07
5.36603e-07
5.37699e-07
5.38793e-07
5.39886e-07
5.40978e-07
5.42067e-07
5.43155e-07
5.44241e-07
5.45325e-07
5.46409e-07
5.4749e-07
5.48569e-07
5.49647e-07
5.50724e-07
5.53038e-07
9.81712e-07
9.81869e-07
9.81925e-07
9.81948e-07
9.32041e-07
7.65264e-07
7.03606e-08
5.04887e-07
5.06381e-07
5.07523e-07
5.08662e-07
5.098e-07
5.10936e-07
5.12069e-07
5.13202e-07
5.14333e-07
5.15461e-07
5.16589e-07
5.17715e-07
5.18838e-07
5.19961e-07
5.21083e-07
5.22201e-07
5.23319e-07
5.24435e-07
5.25549e-07
5.26662e-07
5.27774e-07
5.28882e-07
5.29991e-07
5.31097e-07
5.32201e-07
5.33304e-07
5.34406e-07
5.35504e-07
5.36603e-07
5.37699e-07
5.38793e-07
5.39886e-07
5.40978e-07
5.42067e-07
5.43155e-07
5.44241e-07
5.45325e-07
5.46409e-07
5.4749e-07
5.48569e-07
5.49647e-07
5.50724e-07
5.53038e-07
9.81726e-07
9.81859e-07
9.81925e-07
9.81942e-07
9.32374e-07
7.75533e-07
5.77515e-08
5.04892e-07
5.06382e-07
5.07524e-07
5.08662e-07
5.098e-07
5.10936e-07
5.12069e-07
5.13202e-07
5.14333e-07
5.15461e-07
5.16589e-07
5.17715e-07
5.18839e-07
5.19961e-07
5.21083e-07
5.22201e-07
5.23319e-07
5.24435e-07
5.25549e-07
5.26662e-07
5.27774e-07
5.28882e-07
5.29991e-07
5.31097e-07
5.32201e-07
5.33304e-07
5.34406e-07
5.35504e-07
5.36603e-07
5.37699e-07
5.38793e-07
5.39886e-07
5.40978e-07
5.42067e-07
5.43155e-07
5.44241e-07
5.45325e-07
5.46409e-07
5.4749e-07
5.48569e-07
5.49647e-07
5.50724e-07
5.53038e-07
9.81723e-07
9.81865e-07
9.81926e-07
9.81971e-07
9.30903e-07
7.75955e-07
5.17998e-08
5.04894e-07
5.06384e-07
5.07525e-07
5.08663e-07
5.098e-07
5.10936e-07
5.12069e-07
5.13202e-07
5.14333e-07
5.15461e-07
5.16589e-07
5.17715e-07
5.18838e-07
5.19961e-07
5.21083e-07
5.22201e-07
5.23319e-07
5.24435e-07
5.25549e-07
5.26662e-07
5.27774e-07
5.28882e-07
5.29991e-07
5.31097e-07
5.32201e-07
5.33304e-07
5.34406e-07
5.35504e-07
5.36603e-07
5.37699e-07
5.38793e-07
5.39886e-07
5.40978e-07
5.42067e-07
5.43155e-07
5.44241e-07
5.45325e-07
5.46409e-07
5.4749e-07
5.48569e-07
5.49647e-07
5.50724e-07
5.53038e-07
9.81694e-07
9.81846e-07
9.81924e-07
9.81934e-07
9.32374e-07
7.76912e-07
1.83342e-07
5.04897e-07
5.06385e-07
5.07526e-07
5.08663e-07
5.09801e-07
5.10936e-07
5.12069e-07
5.13202e-07
5.14333e-07
5.15461e-07
5.16589e-07
5.17715e-07
5.18838e-07
5.19961e-07
5.21083e-07
5.22201e-07
5.23319e-07
5.24435e-07
5.25549e-07
5.26662e-07
5.27774e-07
5.28882e-07
5.29991e-07
5.31097e-07
5.32201e-07
5.33304e-07
5.34406e-07
5.35504e-07
5.36603e-07
5.37699e-07
5.38793e-07
5.39886e-07
5.40978e-07
5.42067e-07
5.43155e-07
5.44241e-07
5.45325e-07
5.46409e-07
5.4749e-07
5.48569e-07
5.49647e-07
5.50724e-07
5.53038e-07
9.81731e-07
9.81871e-07
9.81937e-07
9.81986e-07
9.3194e-07
5.0634e-07
1.83343e-07
5.04897e-07
5.06386e-07
5.07526e-07
5.08664e-07
5.09801e-07
5.10937e-07
5.1207e-07
5.13202e-07
5.14333e-07
5.15461e-07
5.16589e-07
5.17715e-07
5.18838e-07
5.19961e-07
5.21083e-07
5.22201e-07
5.23319e-07
5.24435e-07
5.25549e-07
5.26662e-07
5.27774e-07
5.28882e-07
5.29991e-07
5.31097e-07
5.32201e-07
5.33304e-07
5.34406e-07
5.35504e-07
5.36603e-07
5.37699e-07
5.38793e-07
5.39886e-07
5.40978e-07
5.42067e-07
5.43155e-07
5.44241e-07
5.45325e-07
5.46409e-07
5.4749e-07
5.48569e-07
5.49647e-07
5.50724e-07
5.53038e-07
9.73298e-07
9.7346e-07
9.73518e-07
9.73552e-07
9.31959e-07
8.01309e-08
1.83345e-07
3.9242e-07
3.93663e-07
3.94696e-07
3.9573e-07
3.96762e-07
3.97794e-07
3.98825e-07
3.99856e-07
4.00885e-07
4.01915e-07
4.02943e-07
4.0397e-07
4.04998e-07
4.06024e-07
4.07049e-07
4.08074e-07
4.09098e-07
4.10121e-07
4.11144e-07
4.12166e-07
4.13187e-07
4.14207e-07
4.15227e-07
4.16245e-07
4.17263e-07
4.1828e-07
4.19297e-07
4.20313e-07
4.21327e-07
4.22341e-07
4.23355e-07
4.24367e-07
4.25378e-07
4.26389e-07
4.27399e-07
4.28408e-07
4.29417e-07
4.30424e-07
4.31431e-07
4.32437e-07
4.33442e-07
4.34445e-07
4.36221e-07
9.73242e-07
9.73444e-07
9.73538e-07
9.73628e-07
9.32231e-07
7.6215e-07
1.83348e-07
3.9242e-07
3.93663e-07
3.94696e-07
3.9573e-07
3.96762e-07
3.97794e-07
3.98825e-07
3.99856e-07
4.00885e-07
4.01915e-07
4.02943e-07
4.0397e-07
4.04998e-07
4.06024e-07
4.07049e-07
4.08074e-07
4.09098e-07
4.10121e-07
4.11144e-07
4.12166e-07
4.13187e-07
4.14207e-07
4.15227e-07
4.16245e-07
4.17263e-07
4.1828e-07
4.19297e-07
4.20313e-07
4.21327e-07
4.22341e-07
4.23355e-07
4.24367e-07
4.25378e-07
4.26389e-07
4.27399e-07
4.28408e-07
4.29417e-07
4.30424e-07
4.31431e-07
4.32437e-07
4.33442e-07
4.34445e-07
4.36221e-07
9.73287e-07
9.73457e-07
9.73549e-07
9.7364e-07
9.32415e-07
7.76589e-07
1.83244e-07
3.92419e-07
3.93662e-07
3.94696e-07
3.9573e-07
3.96762e-07
3.97794e-07
3.98825e-07
3.99856e-07
4.00885e-07
4.01915e-07
4.02943e-07
4.0397e-07
4.04998e-07
4.06024e-07
4.07049e-07
4.08074e-07
4.09098e-07
4.10121e-07
4.11144e-07
4.12166e-07
4.13187e-07
4.14207e-07
4.15227e-07
4.16245e-07
4.17263e-07
4.1828e-07
4.19297e-07
4.20313e-07
4.21327e-07
4.22341e-07
4.23355e-07
4.24367e-07
4.25378e-07
4.26389e-07
4.27399e-07
4.28408e-07
4.29417e-07
4.30424e-07
4.31431e-07
4.32437e-07
4.33442e-07
4.34445e-07
4.36221e-07
9.73299e-07
9.73459e-07
9.73556e-07
9.73616e-07
9.32352e-07
7.76293e-07
5.18587e-08
3.92419e-07
3.93662e-07
3.94696e-07
3.9573e-07
3.96762e-07
3.97794e-07
3.98825e-07
3.99856e-07
4.00885e-07
4.01915e-07
4.02943e-07
4.0397e-07
4.04998e-07
4.06024e-07
4.07049e-07
4.08074e-07
4.09098e-07
4.10121e-07
4.11144e-07
4.12166e-07
4.13187e-07
4.14207e-07
4.15227e-07
4.16245e-07
4.17263e-07
4.1828e-07
4.19297e-07
4.20313e-07
4.21327e-07
4.22341e-07
4.23355e-07
4.24367e-07
4.25378e-07
4.26389e-07
4.27399e-07
4.28408e-07
4.29417e-07
4.30424e-07
4.31431e-07
4.32437e-07
4.33442e-07
4.34445e-07
4.36221e-07
9.73296e-07
9.73454e-07
9.73518e-07
9.73595e-07
9.32104e-07
7.74165e-07
6.50641e-08
3.92419e-07
3.93662e-07
3.94696e-07
3.95729e-07
3.96762e-07
3.97794e-07
3.98825e-07
3.99856e-07
4.00885e-07
4.01915e-07
4.02943e-07
4.0397e-07
4.04998e-07
4.06024e-07
4.07049e-07
4.08074e-07
4.09098e-07
4.10121e-07
4.11144e-07
4.12166e-07
4.13187e-07
4.14207e-07
4.15227e-07
4.16245e-07
4.17263e-07
4.1828e-07
4.19297e-07
4.20313e-07
4.21327e-07
4.22341e-07
4.23355e-07
4.24367e-07
4.25378e-07
4.26389e-07
4.27399e-07
4.28408e-07
4.29417e-07
4.30424e-07
4.31431e-07
4.32437e-07
4.33442e-07
4.34445e-07
4.36221e-07
9.73261e-07
9.73447e-07
9.73551e-07
9.7363e-07
9.32625e-07
7.74607e-07
7.03245e-08
3.92417e-07
3.93661e-07
3.94695e-07
3.95729e-07
3.96762e-07
3.97794e-07
3.98825e-07
3.99856e-07
4.00885e-07
4.01915e-07
4.02943e-07
4.0397e-07
4.04998e-07
4.06024e-07
4.07049e-07
4.08074e-07
4.09098e-07
4.10121e-07
4.11144e-07
4.12166e-07
4.13187e-07
4.14207e-07
4.15227e-07
4.16245e-07
4.17263e-07
4.1828e-07
4.19297e-07
4.20313e-07
4.21327e-07
4.22341e-07
4.23355e-07
4.24367e-07
4.25378e-07
4.26389e-07
4.27399e-07
4.28408e-07
4.29417e-07
4.30424e-07
4.31431e-07
4.32437e-07
4.33442e-07
4.34445e-07
4.36221e-07
9.73296e-07
9.73456e-07
9.73556e-07
9.73628e-07
9.3251e-07
7.73765e-07
5.75867e-08
3.92418e-07
3.93662e-07
3.94696e-07
3.95729e-07
3.96762e-07
3.97794e-07
3.98825e-07
3.99856e-07
4.00885e-07
4.01915e-07
4.02943e-07
4.0397e-07
4.04998e-07
4.06024e-07
4.07049e-07
4.08074e-07
4.09098e-07
4.10121e-07
4.11144e-07
4.12166e-07
4.13187e-07
4.14207e-07
4.15227e-07
4.16245e-07
4.17263e-07
4.1828e-07
4.19297e-07
4.20313e-07
4.21327e-07
4.22341e-07
4.23355e-07
4.24367e-07
4.25378e-07
4.26389e-07
4.27399e-07
4.28408e-07
4.29417e-07
4.30424e-07
4.31431e-07
4.32437e-07
4.33442e-07
4.34445e-07
4.36221e-07
9.73299e-07
9.73455e-07
9.73549e-07
9.73633e-07
9.314e-07
7.76855e-07
5.17994e-08
3.92419e-07
3.93662e-07
3.94696e-07
3.9573e-07
3.96762e-07
3.97794e-07
3.98825e-07
3.99856e-07
4.00885e-07
4.01915e-07
4.02943e-07
4.0397e-07
4.04998e-07
4.06024e-07
4.07049e-07
4.08074e-07
4.09098e-07
4.10121e-07
4.11144e-07
4.12166e-07
4.13187e-07
4.14207e-07
4.15227e-07
4.16245e-07
4.17263e-07
4.1828e-07
4.19297e-07
4.20313e-07
4.21327e-07
4.22341e-07
4.23355e-07
4.24367e-07
4.25378e-07
4.26389e-07
4.27399e-07
4.28408e-07
4.29417e-07
4.30424e-07
4.31431e-07
4.32437e-07
4.33441e-07
4.34445e-07
4.36221e-07
9.73244e-07
9.73411e-07
9.73555e-07
9.73601e-07
9.32747e-07
7.76157e-07
1.83346e-07
3.9242e-07
3.93663e-07
3.94696e-07
3.9573e-07
3.96762e-07
3.97794e-07
3.98825e-07
3.99856e-07
4.00885e-07
4.01915e-07
4.02943e-07
4.0397e-07
4.04998e-07
4.06024e-07
4.07049e-07
4.08074e-07
4.09098e-07
4.10121e-07
4.11144e-07
4.12166e-07
4.13187e-07
4.14207e-07
4.15227e-07
4.16245e-07
4.17263e-07
4.1828e-07
4.19297e-07
4.20313e-07
4.21327e-07
4.22341e-07
4.23355e-07
4.24367e-07
4.25378e-07
4.26389e-07
4.27399e-07
4.28408e-07
4.29417e-07
4.30424e-07
4.31431e-07
4.32437e-07
4.33442e-07
4.34445e-07
4.36221e-07
9.73299e-07
9.73457e-07
9.73547e-07
9.73627e-07
9.32168e-07
5.15428e-07
1.83347e-07
3.9242e-07
3.93663e-07
3.94696e-07
3.9573e-07
3.96762e-07
3.97794e-07
3.98825e-07
3.99856e-07
4.00885e-07
4.01915e-07
4.02943e-07
4.0397e-07
4.04998e-07
4.06024e-07
4.07049e-07
4.08074e-07
4.09098e-07
4.10121e-07
4.11144e-07
4.12166e-07
4.13187e-07
4.14207e-07
4.15227e-07
4.16245e-07
4.17263e-07
4.1828e-07
4.19297e-07
4.20313e-07
4.21327e-07
4.22341e-07
4.23355e-07
4.24367e-07
4.25378e-07
4.26389e-07
4.27399e-07
4.28408e-07
4.29417e-07
4.30424e-07
4.31431e-07
4.32437e-07
4.33442e-07
4.34445e-07
4.36221e-07
3.51425e-08
4.31707e-07
3.51425e-08
8.01319e-08
5.17846e-08
4.99138e-07
5.17851e-08
3.51426e-08
7.00276e-07
3.51586e-08
7.64845e-07
5.17854e-08
7.76663e-07
5.1821e-08
3.52294e-08
7.00303e-07
4.5132e-08
7.756e-07
5.20547e-08
7.75732e-07
6.67405e-08
6.08719e-08
6.92373e-07
3.40368e-07
7.76279e-07
8.88482e-08
7.75441e-07
4.17758e-07
6.1714e-07
7.00812e-07
6.78453e-07
7.7396e-07
6.39644e-07
7.73942e-07
7.11487e-07
6.8761e-07
7.00834e-07
6.4346e-07
7.65385e-07
7.62369e-07
7.68657e-07
6.65323e-07
3.44086e-07
6.9287e-07
6.10979e-08
7.76797e-07
4.21564e-07
7.7618e-07
8.91673e-08
4.50062e-08
7.0091e-07
3.52307e-08
7.7475e-07
6.6716e-08
7.76471e-07
5.20579e-08
3.51584e-08
6.92185e-07
3.51426e-08
7.76536e-07
5.18202e-08
7.63777e-07
5.17854e-08
3.51425e-08
5.42782e-08
3.51425e-08
5.09339e-07
5.17852e-08
7.94526e-08
5.17846e-08
5.17844e-08
4.94956e-07
5.1785e-08
8.01817e-08
5.17844e-08
4.94311e-07
5.17851e-08
5.17853e-08
7.76979e-07
5.18212e-08
7.65295e-07
5.17853e-08
7.76387e-07
5.18211e-08
5.2078e-08
7.74767e-07
6.69415e-08
7.75798e-07
5.20779e-08
7.73625e-07
6.68141e-08
8.89125e-08
7.74358e-07
4.13393e-07
7.76029e-07
8.89038e-08
7.75704e-07
4.11768e-07
6.36235e-07
7.75427e-07
7.08077e-07
7.71318e-07
6.4912e-07
7.76774e-07
6.95827e-07
7.46628e-07
7.65466e-07
6.48968e-07
7.75381e-07
7.51552e-07
7.68292e-07
6.54088e-07
4.16506e-07
7.75929e-07
8.92238e-08
7.74139e-07
4.18425e-07
7.75501e-07
8.92207e-08
6.68302e-08
7.7514e-07
5.2082e-08
7.76762e-07
6.67442e-08
7.7417e-07
5.20816e-08
5.18203e-08
7.6448e-07
5.17853e-08
7.76807e-07
5.18203e-08
7.64709e-07
5.17854e-08
5.1785e-08
7.95055e-08
5.17844e-08
5.09115e-07
5.1785e-08
7.94863e-08
5.17844e-08
5.17845e-08
4.98381e-07
5.17851e-08
5.47412e-08
3.51424e-08
4.35829e-07
3.51424e-08
5.17853e-08
7.76259e-07
5.18208e-08
6.90022e-07
3.51425e-08
7.00453e-07
3.51585e-08
5.20539e-08
7.74364e-07
6.6675e-08
7.00632e-07
3.52288e-08
6.99869e-07
4.50882e-08
8.88197e-08
7.7615e-07
4.13091e-07
6.96035e-07
6.0845e-08
6.9513e-07
3.30551e-07
6.70739e-07
7.76707e-07
7.17968e-07
7.00864e-07
6.58155e-07
6.98887e-07
6.53909e-07
7.53396e-07
7.68636e-07
6.6507e-07
6.99687e-07
6.86889e-07
6.99581e-07
6.50233e-07
4.23308e-07
7.75662e-07
8.91531e-08
6.96333e-07
3.44907e-07
6.97624e-07
6.10754e-08
6.65016e-08
7.74586e-07
5.20582e-08
7.00819e-07
4.49534e-08
7.00511e-07
3.52306e-08
5.182e-08
7.65261e-07
5.17854e-08
7.00679e-07
3.51583e-08
6.91438e-07
3.51425e-08
5.17851e-08
7.94205e-08
5.17845e-08
4.50541e-07
3.51424e-08
5.4255e-08
3.51424e-08
6.88236e-07
9.02606e-07
7.00313e-07
9.31754e-07
7.64166e-07
9.32239e-07
7.7596e-07
5.1715e-08
3.50697e-08
6.23778e-08
7.99879e-08
9.08008e-08
3.50913e-08
5.16631e-08
1.29657e-07
1.29269e-07
1.29658e-07
1.83345e-07
1.84015e-07
1.83347e-07
1.84016e-07
9.03048e-07
9.03047e-07
9.03197e-07
9.32561e-07
9.32072e-07
9.32383e-07
9.32614e-07
2.14785e-07
6.05477e-08
6.98188e-07
7.64126e-07
8.80917e-08
7.73936e-07
1.55413e-07
1.29658e-07
1.29269e-07
1.29658e-07
1.83348e-07
1.84017e-07
1.83346e-07
1.84016e-07
9.03148e-07
9.031e-07
9.03196e-07
9.32634e-07
9.3259e-07
9.32711e-07
9.32647e-07
7.74073e-07
6.91455e-07
7.00737e-07
7.76991e-07
7.66149e-07
7.77093e-07
6.9824e-07
1.29658e-07
3.51612e-08
1.29566e-07
1.83244e-07
1.84016e-07
5.18004e-08
1.83831e-07
9.02784e-07
9.02678e-07
9.02479e-07
9.32643e-07
9.32532e-07
9.32607e-07
9.32114e-07
7.76079e-07
7.00153e-07
6.98415e-07
7.72663e-07
7.75994e-07
7.76216e-07
6.98721e-07
1.29566e-07
3.88212e-08
1.29567e-07
5.1859e-08
1.8383e-07
5.75011e-08
1.83833e-07
9.02856e-07
9.02545e-07
9.02601e-07
9.3211e-07
9.32066e-07
9.32253e-07
9.32363e-07
7.72721e-07
6.97505e-07
6.86866e-07
7.69991e-07
7.72886e-07
7.6841e-07
6.89245e-07
1.29567e-07
4.79633e-08
1.29566e-07
6.5455e-08
1.83833e-07
7.1113e-08
1.83832e-07
9.033e-07
9.03012e-07
9.03138e-07
9.32268e-07
9.32692e-07
9.32303e-07
9.3257e-07
7.75549e-07
7.0071e-07
7.00735e-07
7.76446e-07
7.77549e-07
7.76807e-07
6.965e-07
1.29566e-07
4.42028e-08
1.29566e-07
7.03222e-08
1.83828e-07
6.5574e-08
1.8383e-07
9.02471e-07
9.0282e-07
9.03154e-07
9.32555e-07
9.32363e-07
9.32561e-07
9.32558e-07
7.72414e-07
6.93357e-07
7.00888e-07
7.75776e-07
7.74652e-07
7.76035e-07
6.91677e-07
1.29567e-07
3.51853e-08
1.29566e-07
5.76253e-08
1.83832e-07
5.18635e-08
1.8383e-07
9.02788e-07
9.02947e-07
9.02068e-07
9.31935e-07
9.31767e-07
9.32241e-07
9.32038e-07
7.75381e-07
7.0044e-07
6.87685e-07
7.6861e-07
7.75654e-07
7.69586e-07
7.00004e-07
1.29566e-07
1.29217e-07
1.29658e-07
5.18007e-08
1.83831e-07
1.83244e-07
1.84016e-07
9.03241e-07
9.0315e-07
9.03104e-07
9.32607e-07
9.327e-07
9.32611e-07
9.32254e-07
4.02257e-07
6.89057e-07
7.00091e-07
7.7654e-07
7.6304e-07
7.75661e-07
3.17143e-07
1.29657e-07
1.29269e-07
1.29658e-07
1.83346e-07
1.84016e-07
1.83348e-07
1.84017e-07
7.00301e-07
9.02279e-07
6.90173e-07
9.31971e-07
7.7568e-07
9.32079e-07
7.60391e-07
5.30496e-08
4.13066e-08
1.3543e-07
5.2426e-07
6.09751e-08
1.89506e-07
3.59879e-08
1.29658e-07
1.29268e-07
1.29657e-07
1.83347e-07
1.84016e-07
1.83345e-07
1.84015e-07
7.6171e-07
9.32075e-07
7.76107e-07
9.31517e-07
7.6411e-07
9.32048e-07
7.75674e-07
5.17582e-08
5.16665e-08
9.10924e-08
8.02141e-08
5.17597e-08
9.10825e-08
5.16611e-08
1.8401e-07
1.83343e-07
1.84011e-07
1.8334e-07
1.8401e-07
1.83343e-07
1.84011e-07
9.32267e-07
9.32112e-07
9.32533e-07
9.31838e-07
9.32294e-07
9.32075e-07
9.3253e-07
2.13822e-07
8.83236e-08
7.73569e-07
7.6394e-07
2.1433e-07
8.82346e-08
7.73602e-07
1.84012e-07
1.83342e-07
1.84011e-07
1.83344e-07
1.84012e-07
1.83342e-07
1.84011e-07
9.32014e-07
9.32532e-07
9.32447e-07
9.32138e-07
9.31579e-07
9.32466e-07
9.32412e-07
7.7322e-07
7.63031e-07
7.73544e-07
7.74543e-07
7.73602e-07
7.60282e-07
7.75775e-07
1.84011e-07
5.18001e-08
1.83826e-07
1.83241e-07
1.84011e-07
5.18006e-08
1.83826e-07
9.32413e-07
9.32576e-07
9.32026e-07
9.3236e-07
9.32341e-07
9.32543e-07
9.32115e-07
7.73332e-07
7.76254e-07
7.68764e-07
7.75942e-07
7.74366e-07
7.76678e-07
7.65921e-07
1.83825e-07
5.7623e-08
1.83828e-07
5.18641e-08
1.83825e-07
5.76479e-08
1.83828e-07
9.3201e-07
9.32229e-07
9.32084e-07
9.31499e-07
9.32206e-07
9.32319e-07
9.31971e-07
7.75041e-07
7.76181e-07
7.7461e-07
7.71929e-07
7.75887e-07
7.76001e-07
7.74111e-07
1.83828e-07
7.11296e-08
1.83826e-07
6.52939e-08
1.83828e-07
7.14408e-08
1.83826e-07
9.32359e-07
9.31921e-07
9.32328e-07
9.32162e-07
9.32097e-07
9.32084e-07
9.32289e-07
7.75747e-07
7.74434e-07
7.74076e-07
7.70724e-07
7.7651e-07
7.7479e-07
7.75236e-07
1.83822e-07
6.57429e-08
1.83824e-07
7.05496e-08
1.83823e-07
6.57541e-08
1.83825e-07
9.32019e-07
9.32425e-07
9.3246e-07
9.32285e-07
9.32086e-07
9.32345e-07
9.32509e-07
7.6317e-07
7.70244e-07
7.59809e-07
7.74692e-07
7.666e-07
7.67236e-07
7.65648e-07
1.83827e-07
5.18693e-08
1.83825e-07
5.77066e-08
1.83828e-07
5.18694e-08
1.83825e-07
9.31646e-07
9.32239e-07
9.32266e-07
9.30257e-07
9.3193e-07
9.32286e-07
9.32381e-07
7.75406e-07
7.76504e-07
7.75421e-07
7.76168e-07
7.75532e-07
7.75984e-07
7.75186e-07
1.83826e-07
1.8324e-07
1.84011e-07
5.18011e-08
1.83826e-07
1.83241e-07
1.84011e-07
9.32426e-07
9.32331e-07
9.32344e-07
9.32367e-07
9.32132e-07
9.32233e-07
9.32527e-07
3.93463e-07
7.6177e-07
7.74961e-07
7.7697e-07
3.94433e-07
7.61278e-07
7.75122e-07
1.84011e-07
1.83344e-07
1.84012e-07
1.83342e-07
1.84011e-07
1.83344e-07
1.84012e-07
7.76571e-07
9.32057e-07
7.6023e-07
9.31939e-07
7.76163e-07
9.32223e-07
7.6063e-07
5.3186e-08
6.1384e-08
1.8987e-07
5.04218e-07
5.31771e-08
6.14077e-08
1.89328e-07
1.84011e-07
1.8334e-07
1.8401e-07
1.83343e-07
1.84011e-07
1.8334e-07
1.8401e-07
7.6318e-07
9.32412e-07
7.75414e-07
9.02865e-07
6.89194e-07
9.02973e-07
7.00224e-07
5.17313e-08
5.16667e-08
9.10179e-08
8.00449e-08
5.17505e-08
9.0872e-08
5.16616e-08
1.84015e-07
1.83347e-07
1.84016e-07
1.29268e-07
1.29658e-07
1.29269e-07
1.29658e-07
9.32145e-07
9.32364e-07
9.3253e-07
9.03058e-07
9.03025e-07
9.02785e-07
9.02411e-07
2.14815e-07
8.82916e-08
7.73546e-07
7.62986e-07
2.14728e-07
8.81875e-08
7.73633e-07
1.84017e-07
1.83346e-07
1.84015e-07
1.29269e-07
1.29658e-07
1.29269e-07
1.29658e-07
9.31783e-07
9.32607e-07
9.32594e-07
9.02983e-07
9.02539e-07
9.02931e-07
9.03166e-07
7.7367e-07
7.66789e-07
7.76273e-07
7.76653e-07
7.73664e-07
7.65475e-07
7.75232e-07
1.84015e-07
5.1799e-08
1.83831e-07
1.29218e-07
1.29658e-07
3.51611e-08
1.29566e-07
9.3254e-07
9.32696e-07
9.32428e-07
9.0251e-07
9.03146e-07
9.03164e-07
9.03158e-07
7.74785e-07
7.75569e-07
7.69601e-07
7.76027e-07
7.74137e-07
7.76112e-07
7.69384e-07
1.8383e-07
5.75959e-08
1.83832e-07
3.51841e-08
1.29566e-07
3.89398e-08
1.29567e-07
9.32502e-07
9.32521e-07
9.32128e-07
9.0312e-07
9.0314e-07
9.03079e-07
9.02459e-07
7.75673e-07
7.73129e-07
7.76068e-07
7.76482e-07
7.73756e-07
7.73912e-07
7.76687e-07
1.83832e-07
7.11828e-08
1.83831e-07
4.37596e-08
1.29567e-07
4.84237e-08
1.29567e-07
9.32045e-07
9.32512e-07
9.32554e-07
9.03135e-07
9.01971e-07
9.02957e-07
9.03173e-07
7.76679e-07
7.76126e-07
7.77002e-07
7.72427e-07
7.75632e-07
7.7699e-07
7.77166e-07
1.83829e-07
6.55473e-08
1.8383e-07
4.79279e-08
1.29566e-07
4.41505e-08
1.29566e-07
9.32392e-07
9.32577e-07
9.32693e-07
9.03059e-07
9.03182e-07
9.03114e-07
9.03197e-07
7.70521e-07
7.70564e-07
7.6374e-07
7.74434e-07
7.67863e-07
7.71681e-07
7.64864e-07
1.83832e-07
5.18634e-08
1.8383e-07
3.8868e-08
1.29567e-07
3.51851e-08
1.29566e-07
9.32191e-07
9.32436e-07
9.32423e-07
9.02873e-07
9.03034e-07
9.02941e-07
9.02355e-07
7.75647e-07
7.75687e-07
7.7234e-07
7.77174e-07
7.75283e-07
7.75809e-07
7.72928e-07
1.83831e-07
1.83244e-07
1.84016e-07
3.5161e-08
1.29566e-07
1.29217e-07
1.29658e-07
9.31871e-07
9.32225e-07
9.32576e-07
9.03111e-07
9.01854e-07
9.02136e-07
9.03014e-07
4.0172e-07
7.60999e-07
7.75859e-07
7.76441e-07
3.98331e-07
7.61347e-07
7.76263e-07
1.84015e-07
1.83348e-07
1.84017e-07
1.29269e-07
1.29658e-07
1.29269e-07
1.29658e-07
7.76348e-07
9.32353e-07
7.5781e-07
9.01778e-07
7.00289e-07
9.0295e-07
6.90361e-07
5.30948e-08
6.11995e-08
1.89411e-07
5.23422e-07
5.31492e-08
6.10153e-08
1.89345e-07
1.84016e-07
1.83345e-07
1.84015e-07
1.29269e-07
1.29658e-07
1.29269e-07
1.29658e-07
5.16848e-08
3.50845e-08
3.51425e-08
5.17914e-08
5.17914e-08
3.50845e-08
5.16848e-08
5.32284e-08
1.35022e-07
4.12632e-08
5.13214e-07
1.89383e-07
6.09e-08
3.61144e-08
5.16878e-08
3.51425e-08
3.50906e-08
5.17917e-08
5.17917e-08
5.16991e-08
3.50857e-08
5.17318e-08
8.00712e-08
5.16669e-08
9.10423e-08
9.09327e-08
5.17509e-08
5.16617e-08
5.16842e-08
5.17906e-08
5.16777e-08
5.17845e-08
5.17905e-08
5.16776e-08
5.16842e-08
5.32804e-08
5.06135e-07
1.89407e-07
6.12297e-08
1.8949e-07
6.10639e-08
5.33288e-08
5.16876e-08
5.1791e-08
5.17851e-08
5.16927e-08
5.1791e-08
5.16988e-08
5.16812e-08
5.37315e-08
3.51177e-08
3.51441e-08
5.17918e-08
5.17603e-08
5.17953e-08
3.64535e-08
4.05385e-07
7.00052e-07
6.87216e-07
7.75972e-07
7.75733e-07
7.61935e-07
3.21256e-07
5.72898e-08
3.51464e-08
5.67216e-08
5.18266e-08
5.18005e-08
8.2713e-08
3.88161e-08
2.14434e-07
7.63102e-07
8.82886e-08
7.73965e-07
8.81461e-08
7.73744e-07
2.14633e-07
5.37788e-08
5.17912e-08
5.17801e-08
5.17891e-08
5.17748e-08
5.1795e-08
5.38294e-08
4.02166e-07
7.76319e-07
7.74836e-07
7.63131e-07
7.7543e-07
7.62753e-07
3.98111e-07
5.74165e-08
5.18262e-08
5.17942e-08
8.2875e-08
5.17996e-08
8.2781e-08
5.75573e-08
2.23305e-07
6.78661e-08
3.70016e-08
5.19814e-08
9.84245e-08
5.45693e-08
1.61742e-07
7.76054e-07
7.01019e-07