/*--------------------------------*- C++ -*----------------------------------*\
| =========                 |                                                 |
| \\      /  F ield         | OpenFOAM: The Open Source CFD Toolbox           |
|  \\    /   O peration     | Version:  5.0                                   |
|   \\  /    A nd           | Web:      www.OpenFOAM.org                      |
|    \\/     M anipulation  |                                                 |
\*---------------------------------------------------------------------------*/
FoamFile
{
    version     2.0;
    format      ascii;
    class       volVectorField;
    location    "0.2";
    object      U;
}
// * * * * * * * * * * * * * * * * * * * * * * * * * * * * * * * * * * * * * //

dimensions      [0 1 -1 0 0 0 0];

internalField   nonuniform List<vector> 
4398
(
(0.000691406 2.22013e-06 -3.66419e-06)
(0.000909311 -1.92847e-05 2.23812e-06)
(0.00088965 6.89482e-05 1.02566e-06)
(0.000655275 -7.40632e-05 6.79791e-06)
(0.000729298 -9.74217e-05 -8.15656e-06)
(0.000524424 -1.17532e-05 9.18639e-05)
(0.000521258 3.09569e-05 -1.38178e-06)
(0.000862658 2.74747e-06 -2.12846e-06)
(0.000831939 2.36015e-07 -2.3962e-07)
(0.000840239 -6.42225e-07 9.84166e-08)
(0.000839879 -7.17939e-07 6.82708e-08)
(0.000840452 -5.7345e-07 7.11888e-08)
(0.000840204 -3.92129e-07 3.76465e-08)
(0.000839291 -1.50728e-07 -1.10168e-07)
(0.000838093 -1.96182e-07 3.83661e-08)
(0.000836966 -2.01913e-07 1.38786e-08)
(0.000835512 -1.94722e-07 5.4187e-08)
(0.000834173 -3.0623e-07 5.58933e-08)
(0.000832686 -2.61059e-07 6.08132e-08)
(0.000831056 -1.99379e-07 2.13661e-08)
(0.000829622 -1.42463e-07 2.80755e-08)
(0.000828145 -1.11802e-07 8.07814e-08)
(0.000826566 -4.55285e-08 3.83222e-08)
(0.000824948 3.58621e-08 1.43166e-08)
(0.000823383 -6.25017e-08 6.10987e-08)
(0.000821788 -9.97408e-08 1.8253e-08)
(0.000820148 -4.61106e-08 4.15559e-08)
(0.000818474 -1.2301e-08 5.16094e-08)
(0.000817028 -2.22774e-08 2.98548e-08)
(0.000815611 -2.29967e-08 7.7965e-08)
(0.000814009 6.6828e-08 6.71884e-08)
(0.000812535 9.69631e-08 6.74864e-08)
(0.000810985 2.46729e-08 9.99911e-08)
(0.000809322 -1.53182e-08 4.96305e-08)
(0.000807775 2.65533e-09 4.98386e-08)
(0.000806358 -1.17896e-08 9.01755e-08)
(0.000804958 -1.74989e-08 1.82798e-08)
(0.00080348 -2.16881e-08 5.70515e-08)
(0.000801928 -4.20021e-08 6.463e-08)
(0.000800372 -3.44877e-08 3.51137e-08)
(0.000798898 -1.5655e-09 4.8952e-08)
(0.000797463 1.38925e-08 5.36857e-08)
(0.000795992 9.34442e-08 8.59215e-08)
(0.000794556 1.11711e-07 3.39722e-08)
(0.000793127 6.595e-08 5.00326e-08)
(0.000791654 -1.01044e-08 -6.26105e-08)
(0.000790159 -4.07047e-09 4.77573e-08)
(0.000788691 4.53821e-08 4.3333e-08)
(0.000787251 2.88292e-08 5.54381e-08)
(0.000786043 1.99097e-08 8.51072e-08)
(0.00067801 8.44501e-06 -4.29136e-06)
(0.000958935 -2.23352e-05 1.87139e-06)
(0.000855355 2.36806e-05 -9.3463e-07)
(0.000878214 -8.4943e-05 4.80116e-06)
(0.000631417 6.0231e-05 1.47759e-05)
(0.00187939 0.000548479 6.22615e-05)
(0.000435171 -1.78867e-05 -7.40486e-07)
(0.000847315 -1.05785e-05 -2.01603e-06)
(0.000828531 -8.33772e-06 -1.45705e-07)
(0.000839471 -6.06153e-06 1.25346e-07)
(0.000840261 -4.16304e-06 5.23213e-08)
(0.000841015 -2.77389e-06 5.94055e-08)
(0.000840598 -1.82897e-06 5.43299e-08)
(0.000839692 -1.28226e-06 5.134e-08)
(0.000838437 -7.20781e-07 5.23602e-08)
(0.000837142 -3.94293e-07 7.96004e-08)
(0.000835668 -1.35438e-07 7.04272e-08)
(0.000834095 1.66312e-07 6.58087e-08)
(0.000832808 2.75878e-07 3.90482e-08)
(0.000831351 6.36139e-08 4.99808e-08)
(0.000829605 -9.58895e-10 5.52796e-08)
(0.000828072 4.03615e-09 -7.8774e-08)
(0.000826575 -1.01757e-07 7.39128e-08)
(0.00082487 8.09434e-09 2.86855e-08)
(0.000823231 2.92657e-08 5.80643e-08)
(0.000821778 9.1227e-08 3.86689e-08)
(0.000820255 -4.52236e-08 4.10515e-08)
(0.000818671 -9.63883e-09 4.85487e-08)
(0.00081705 9.85024e-08 5.83696e-08)
(0.000815557 8.28551e-08 -9.3846e-08)
(0.000814095 3.54284e-08 6.36685e-08)
(0.000812419 -1.23637e-08 6.45868e-08)
(0.000810808 -1.13686e-07 5.41841e-08)
(0.000809373 -8.63151e-08 2.50471e-07)
(0.000807949 1.63772e-08 5.30802e-08)
(0.000806443 5.01454e-08 4.5782e-08)
(0.000804883 4.3103e-08 4.61374e-08)
(0.000803364 -2.01548e-08 4.83568e-08)
(0.000801916 -6.71809e-08 3.28084e-08)
(0.000800433 -9.47357e-08 -1.0132e-09)
(0.000798939 -3.58267e-08 5.23967e-08)
(0.000797519 -7.39975e-09 6.4964e-08)
(0.000796049 3.99176e-08 4.77399e-08)
(0.00079449 4.56768e-08 2.11117e-08)
(0.00079302 1.66897e-09 5.01858e-08)
(0.000791621 -3.78069e-08 4.83885e-08)
(0.000790198 -4.60892e-08 4.94445e-08)
(0.000788733 -2.52527e-08 6.77757e-08)
(0.000787267 3.14225e-08 5.09348e-08)
(0.000785998 3.07449e-08 8.14702e-08)
(0.000661097 5.39517e-06 -3.31194e-06)
(0.000930222 -1.12347e-05 2.27355e-06)
(0.000805177 2.01675e-05 4.03597e-07)
(0.000748839 -3.75159e-05 8.15463e-06)
(0.000297583 7.10928e-05 -1.42671e-05)
(0.000256661 -3.07886e-05 -6.47872e-06)
(0.000484469 -1.87443e-05 7.71186e-07)
(0.000865387 -2.7271e-05 -2.08832e-06)
(0.000837469 -1.84496e-05 -2.06852e-07)
(0.000845536 -1.09798e-05 9.78171e-08)
(0.000844042 -6.9019e-06 3.81664e-08)
(0.000843405 -4.31547e-06 5.35531e-08)
(0.000842091 -2.71397e-06 5.1332e-08)
(0.000840691 -1.72229e-06 5.30007e-08)
(0.000839212 -1.06373e-06 5.24799e-08)
(0.000837703 -6.08055e-07 7.45324e-08)
(0.000836215 -3.7978e-07 5.6294e-08)
(0.000834686 -2.06905e-07 6.89025e-08)
(0.000832557 -1.44423e-07 6.30672e-08)
(0.000830708 -1.14262e-07 5.20818e-08)
(0.000829547 -4.03103e-08 4.96537e-08)
(0.00082802 -2.37017e-08 3.57916e-08)
(0.000826571 -6.09094e-08 5.00681e-08)
(0.000825112 -2.19742e-07 6.58039e-08)
(0.000823487 -1.90595e-07 4.54456e-08)
(0.000821694 -2.79909e-07 3.73595e-08)
(0.000820022 -1.77653e-07 3.82681e-08)
(0.000818653 -1.62533e-07 4.91455e-08)
(0.000817144 -9.75159e-08 1.26855e-07)
(0.000815531 -3.41662e-08 6.83671e-08)
(0.00081389 -9.0349e-08 4.2147e-08)
(0.000812349 -9.84689e-08 4.47421e-08)
(0.000810893 -6.73496e-09 3.34485e-08)
(0.000809485 8.7223e-08 8.05621e-08)
(0.000807946 8.28799e-08 1.09228e-07)
(0.000806391 7.26317e-08 5.16043e-08)
(0.00080487 2.79188e-08 2.05184e-08)
(0.000803342 2.89717e-08 5.32408e-08)
(0.000801834 2.35143e-09 3.41653e-08)
(0.000800412 3.64316e-08 3.88674e-08)
(0.000799008 9.34337e-08 5.89408e-08)
(0.000797558 5.33961e-08 6.07111e-08)
(0.000796059 -1.17844e-08 4.62291e-08)
(0.000794508 -4.92273e-08 6.94403e-08)
(0.000793022 1.85994e-08 5.32152e-08)
(0.000791594 3.00271e-08 5.16703e-08)
(0.000790175 -1.12033e-08 3.07139e-08)
(0.000788788 -1.3475e-08 6.51686e-08)
(0.000787321 3.24622e-09 5.45286e-08)
(0.000785966 -6.57888e-10 7.96716e-08)
(0.000663221 6.50536e-06 -4.42548e-06)
(0.000973624 -1.19256e-05 2.19092e-06)
(0.00082277 4.31122e-05 -6.49706e-07)
(0.000901401 -3.73361e-05 2.92706e-06)
(0.000538564 6.58763e-05 8.75729e-06)
(0.000236926 0.000167916 2.99109e-05)
(0.000418456 -3.91662e-05 8.94793e-06)
(0.000901338 -2.53143e-05 -2.04763e-06)
(0.00084878 -1.92525e-05 -4.84487e-07)
(0.000854039 -1.1006e-05 4.07014e-08)
(0.000848674 -6.8402e-06 3.41991e-08)
(0.000846301 -4.20253e-06 5.69559e-08)
(0.000843871 -2.57936e-06 5.26447e-08)
(0.000841775 -1.59795e-06 5.2988e-08)
(0.000839843 -9.94467e-07 5.21778e-08)
(0.000838004 -6.63124e-07 5.03054e-08)
(0.000836174 -4.92727e-07 2.17971e-08)
(0.000834392 -3.69005e-07 3.55446e-08)
(0.000832926 -3.98464e-07 1.91027e-08)
(0.000831482 -1.27175e-07 1.97737e-08)
(0.000829718 -5.02271e-08 6.77851e-08)
(0.000828046 -7.78059e-08 5.10491e-08)
(0.000826329 -1.51184e-08 4.68644e-08)
(0.000824708 -1.70588e-07 9.95372e-08)
(0.000823156 -2.07577e-07 2.91789e-08)
(0.000821795 -2.87878e-07 5.82939e-08)
(0.000820402 -1.15348e-07 6.0157e-08)
(0.000818771 -8.44066e-08 5.75915e-08)
(0.00081721 -1.5985e-07 7.42556e-08)
(0.000815566 -1.81342e-07 -8.0453e-09)
(0.000814014 -1.14312e-07 4.31942e-08)
(0.000812524 -6.04228e-08 6.01179e-08)
(0.00081104 4.29955e-08 3.90458e-08)
(0.000809485 3.05959e-08 5.62294e-08)
(0.00080793 2.76103e-08 4.40979e-08)
(0.000806374 5.80688e-08 -1.2857e-08)
(0.000804828 1.58467e-07 4.43216e-08)
(0.000803332 1.01877e-07 5.17223e-08)
(0.000801925 1.5093e-07 7.44034e-08)
(0.000800546 1.75619e-07 7.69512e-08)
(0.00079896 9.32471e-08 3.54922e-08)
(0.000797387 1.57607e-07 1.60507e-08)
(0.000795921 7.17106e-08 1.43355e-07)
(0.000794528 1.35827e-07 8.24955e-09)
(0.000793119 1.05135e-07 5.36803e-08)
(0.000791584 1.06751e-07 3.0914e-08)
(0.000790144 9.87729e-08 2.14854e-08)
(0.000788751 1.2406e-07 7.14808e-08)
(0.000787283 5.05912e-09 5.17503e-08)
(0.000785994 -1.69503e-08 8.14417e-08)
(0.000643661 1.52736e-06 -3.35437e-06)
(0.000967894 -8.50245e-06 1.58563e-06)
(0.00079519 2.27386e-05 -1.0687e-08)
(0.000840963 -3.67006e-05 5.30999e-06)
(0.000248438 0.000112831 5.55232e-07)
(2.32732e-05 0.000447155 1.21049e-05)
(0.000424113 -0.000108442 0.000143687)
(0.00090196 -1.96787e-05 -1.41431e-06)
(0.00085657 -1.13585e-05 -3.93813e-07)
(0.000861184 -6.18476e-06 3.12995e-07)
(0.000852624 -3.60766e-06 4.63771e-08)
(0.000848779 -2.10743e-06 5.80948e-08)
(0.000845376 -1.27343e-06 5.86773e-09)
(0.000842689 -7.76428e-07 5.19603e-08)
(0.000840391 -4.86907e-07 7.68017e-08)
(0.000838337 -3.0687e-07 5.95242e-08)
(0.000836587 -1.69612e-07 7.44307e-08)
(0.000834808 -6.45598e-08 4.68495e-08)
(0.000832862 9.10092e-08 3.23105e-08)
(0.000831146 1.72522e-07 3.79629e-08)
(0.000829609 2.26108e-07 4.78936e-08)
(0.000828063 1.37712e-07 7.33258e-08)
(0.000826456 2.75628e-08 3.38252e-08)
(0.000824871 1.2693e-07 7.08731e-08)
(0.000823341 1.10744e-07 7.6695e-08)
(0.00082181 1.94598e-07 7.37781e-08)
(0.000820277 7.10476e-08 1.243e-07)
(0.000818598 1.24739e-08 2.81888e-08)
(0.000817023 -3.51663e-08 7.51509e-08)
(0.000815589 -5.80699e-08 4.03928e-08)
(0.000814041 -5.37228e-08 6.8112e-08)
(0.000812546 -6.87696e-09 5.23417e-08)
(0.000811007 -8.92094e-08 1.02165e-08)
(0.000809466 -7.36778e-08 4.80819e-08)
(0.00080798 -9.06477e-08 5.62752e-08)
(0.000806554 -1.10277e-07 5.09685e-08)
(0.000804925 -1.29182e-07 2.79852e-08)
(0.000803332 1.05836e-08 4.67727e-08)
(0.000801926 7.00749e-08 4.83119e-08)
(0.00080034 5.53067e-08 5.55322e-08)
(0.000798985 1.23922e-08 4.50613e-08)
(0.000797531 2.98489e-08 4.72687e-08)
(0.000796031 3.68873e-08 5.22706e-08)
(0.00079455 5.65444e-08 -9.68128e-08)
(0.000792986 4.63888e-08 3.92588e-08)
(0.000791586 2.7919e-08 4.79068e-08)
(0.000790196 8.01686e-08 4.32712e-08)
(0.000788671 6.35973e-09 -2.66972e-09)
(0.000787145 2.56044e-08 4.28788e-08)
(0.000785981 -4.69088e-09 7.16343e-08)
(0.00065411 2.21096e-06 -4.04698e-06)
(0.000995673 1.93041e-06 1.36459e-06)
(0.000815219 1.33867e-06 -1.42094e-06)
(0.00104777 3.79276e-05 2.19112e-06)
(9.56017e-05 -1.68402e-05 2.2214e-05)
(8.42608e-05 -0.000179311 -2.53439e-05)
(0.000425345 -3.5433e-05 5.05085e-05)
(0.000918206 7.76715e-06 -2.85712e-06)
(0.000864439 5.84411e-06 -4.79916e-07)
(0.000863782 3.11476e-06 9.67968e-08)
(0.000853801 1.92445e-06 -4.93165e-09)
(0.000849237 1.16076e-06 8.44755e-09)
(0.000845546 6.82314e-07 7.99369e-08)
(0.000842764 4.04497e-07 5.26149e-08)
(0.000840434 2.33817e-07 4.70354e-08)
(0.000838403 1.27811e-07 3.6123e-08)
(0.000836479 6.30178e-08 5.32291e-08)
(0.000834718 -9.83992e-08 5.16412e-09)
(0.000833222 -8.11789e-08 4.36668e-08)
(0.000831649 -7.21834e-09 3.58842e-08)
(0.000829674 -7.24676e-08 2.88176e-08)
(0.000827796 6.85133e-08 -8.38182e-08)
(0.000826315 1.46269e-07 5.355e-08)
(0.000824812 1.50278e-07 8.35167e-08)
(0.00082324 2.03235e-07 7.42832e-08)
(0.000821745 1.58328e-07 3.06477e-08)
(0.000820174 8.86564e-08 9.6375e-08)
(0.000818639 3.11042e-08 9.23046e-08)
(0.000817123 6.40413e-08 5.21115e-08)
(0.000815543 6.0554e-08 6.27454e-08)
(0.000814078 7.19029e-08 5.95727e-08)
(0.00081248 3.37865e-08 3.13361e-08)
(0.000810957 1.97532e-08 5.43474e-08)
(0.000809483 -2.23799e-08 -6.98119e-08)
(0.000807885 -4.83617e-08 4.80854e-08)
(0.000806326 -3.43742e-08 4.70131e-08)
(0.00080498 -1.60486e-07 1.00238e-07)
(0.000803581 -7.14694e-08 5.25826e-08)
(0.000801981 -1.17132e-07 4.84882e-08)
(0.000800474 -1.14566e-07 7.35426e-08)
(0.000798928 -5.89619e-08 1.56645e-08)
(0.000797418 -1.13978e-07 3.0982e-08)
(0.000795954 -8.64408e-08 4.18876e-08)
(0.00079454 -1.70859e-07 -2.86672e-08)
(0.000793083 -1.00847e-07 3.88567e-08)
(0.000791626 -8.69054e-08 5.00445e-08)
(0.000790117 -7.07247e-08 8.97635e-08)
(0.000788683 -7.08074e-08 9.15512e-08)
(0.00078727 8.41054e-09 3.02878e-08)
(0.000785968 1.32615e-08 7.64716e-08)
(0.000642917 -5.18015e-06 -3.22642e-06)
(0.000956625 4.52558e-06 1.10252e-06)
(0.000831238 -4.03362e-05 -6.54681e-08)
(0.000871384 3.4997e-05 5.73938e-06)
(0.000468386 -9.26416e-05 -2.03254e-06)
(2.8084e-05 0.000267639 -1.90927e-06)
(0.000299942 0.000109182 3.13169e-05)
(0.000902321 2.81613e-05 -1.82171e-06)
(0.000851945 1.90255e-05 -2.72837e-07)
(0.000856224 1.04076e-05 1.43711e-07)
(0.000850146 6.21047e-06 3.65082e-08)
(0.000847205 3.68815e-06 5.46563e-08)
(0.000844418 2.24366e-06 5.09266e-08)
(0.000842121 1.37174e-06 5.13529e-08)
(0.000840041 8.69003e-07 5.33929e-08)
(0.000838121 5.49682e-07 5.18571e-08)
(0.000836303 3.78962e-07 5.15309e-08)
(0.000834628 2.70845e-07 6.1522e-08)
(0.000832976 2.46423e-07 3.81484e-08)
(0.000831158 9.89243e-08 1.50803e-08)
(0.000829705 -5.21283e-08 1.28093e-08)
(0.000828338 3.25478e-08 5.24262e-08)
(0.000826558 9.04688e-08 5.11071e-08)
(0.000824942 6.01323e-08 4.60687e-08)
(0.00082335 1.49328e-08 2.46815e-08)
(0.000821666 7.48066e-08 6.52987e-08)
(0.000820117 6.74694e-08 4.71953e-08)
(0.000818566 1.00094e-07 6.9348e-08)
(0.000817059 9.23181e-08 5.81313e-08)
(0.000815598 1.05225e-07 5.53502e-08)
(0.000814007 7.11196e-08 5.24219e-08)
(0.00081248 1.25856e-08 4.20842e-08)
(0.000810936 3.88305e-08 3.07489e-08)
(0.00080938 1.49366e-08 4.80469e-08)
(0.000807965 1.69197e-08 4.93915e-08)
(0.000806414 1.69009e-08 5.76878e-08)
(0.000804879 1.16094e-07 4.61574e-08)
(0.000803386 2.92941e-09 3.75955e-08)
(0.000801873 -8.53539e-08 4.71033e-08)
(0.000800412 -1.3333e-07 7.33384e-08)
(0.000798986 -1.25524e-07 4.28961e-08)
(0.000797497 -1.12031e-07 1.11232e-08)
(0.000795961 -2.48002e-08 3.77343e-08)
(0.000794533 -2.0584e-08 6.57937e-08)
(0.000793091 -7.06602e-08 5.36656e-08)
(0.000791624 -5.69313e-08 5.04263e-08)
(0.000790217 -1.28081e-07 7.20872e-08)
(0.00078877 -5.49592e-10 7.59154e-08)
(0.00078725 1.32884e-08 4.50068e-08)
(0.000785953 2.9361e-08 9.025e-08)
(0.000670895 -1.1521e-05 -4.32012e-06)
(0.000946876 -5.60289e-06 2.0009e-06)
(0.000839312 -4.5092e-05 -1.43033e-06)
(0.000807148 -1.21597e-07 5.90801e-06)
(0.000282378 -0.00014464 6.53929e-06)
(0.000260441 -0.000218166 -1.36819e-05)
(0.000397728 6.34572e-05 7.61148e-06)
(0.000868637 2.87054e-05 -2.20331e-06)
(0.000841033 1.93283e-05 -2.46537e-07)
(0.000847633 1.15106e-05 1.09357e-07)
(0.000845327 7.17847e-06 4.37387e-08)
(0.000844233 4.43944e-06 5.55056e-08)
(0.000842622 2.76212e-06 5.20409e-08)
(0.000841029 1.69779e-06 5.35206e-08)
(0.000839396 1.0641e-06 5.25188e-08)
(0.000837784 6.74129e-07 5.18835e-08)
(0.000836126 3.67762e-07 1.95319e-09)
(0.000834549 2.58477e-07 3.09951e-08)
(0.000833005 5.67661e-08 6.86067e-08)
(0.000831276 -1.91151e-08 5.04329e-08)
(0.000829591 1.75849e-07 1.19379e-07)
(0.000827976 7.84789e-08 5.72043e-08)
(0.00082635 -2.0405e-08 5.52231e-08)
(0.000824717 6.22041e-08 5.18681e-08)
(0.000823258 1.94825e-08 4.91597e-08)
(0.000821811 2.04189e-08 5.04794e-08)
(0.000820205 2.08704e-09 -3.43236e-08)
(0.00081867 2.47838e-08 3.12163e-08)
(0.000817129 5.13622e-08 5.30244e-08)
(0.000815516 -4.55258e-09 -1.59559e-08)
(0.000813962 -6.57111e-08 1.59147e-08)
(0.000812439 -2.06815e-08 1.93174e-08)
(0.00081096 -4.92124e-08 4.74744e-08)
(0.000809456 -2.5963e-08 4.91517e-08)
(0.000807887 -2.81999e-08 5.02567e-08)
(0.00080645 -9.53332e-08 4.00114e-08)
(0.000804961 -1.47016e-07 5.57486e-08)
(0.000803329 -1.35968e-07 5.8802e-08)
(0.000801811 -5.5818e-08 5.10611e-08)
(0.000800424 -3.48399e-08 4.25912e-08)
(0.000798955 -1.59432e-08 4.11565e-08)
(0.000797544 -8.9767e-08 3.84505e-08)
(0.000796068 -1.17528e-07 7.12758e-08)
(0.000794482 -2.46994e-08 4.56288e-08)
(0.000793038 -2.14893e-08 4.29927e-08)
(0.000791554 -2.20728e-08 4.99385e-08)
(0.000790188 1.33587e-08 3.83359e-08)
(0.00078886 -3.53536e-08 4.77473e-08)
(0.000787307 -2.2515e-08 5.14909e-08)
(0.000785916 -2.45445e-09 8.57385e-08)
(0.000674783 2.40938e-06 -4.44492e-06)
(0.000949325 1.63978e-05 8.43598e-07)
(0.000857152 -6.17228e-05 7.96584e-07)
(0.000719786 9.13281e-05 9.65017e-06)
(0.000324516 -0.000119412 7.73678e-07)
(0.000224982 -9.55759e-05 -1.54137e-05)
(0.000468049 2.155e-05 -1.96266e-06)
(0.000848975 1.45395e-05 -2.04879e-06)
(0.00083056 1.05447e-05 -1.29252e-07)
(0.000840906 7.39935e-06 1.23257e-07)
(0.000841225 5.01703e-06 5.09075e-08)
(0.000841634 3.3082e-06 5.84299e-08)
(0.000840959 2.13587e-06 5.47419e-08)
(0.000839979 1.27771e-06 5.48572e-08)
(0.00083875 8.77817e-07 3.96799e-08)
(0.000837243 5.67156e-07 4.76334e-08)
(0.000835779 3.65152e-07 9.40929e-08)
(0.000834237 3.0685e-07 -2.83196e-08)
(0.000832628 6.805e-08 4.38986e-08)
(0.000831306 4.21951e-08 2.54192e-08)
(0.000829826 8.79367e-09 3.83418e-08)
(0.000828092 -3.47563e-08 3.80441e-08)
(0.000826537 -1.15938e-08 -2.41832e-09)
(0.000824992 -3.18269e-09 4.84215e-08)
(0.000823298 1.2742e-07 5.35583e-08)
(0.000821645 1.10246e-07 7.07351e-08)
(0.000820123 8.52463e-08 3.36755e-08)
(0.000818628 6.22667e-08 3.92068e-08)
(0.000817022 6.26415e-08 4.95703e-08)
(0.000815452 1.0008e-08 6.31021e-09)
(0.000813987 6.12422e-09 8.36225e-08)
(0.000812501 -4.20292e-09 4.18464e-08)
(0.00081093 3.2441e-08 8.87369e-08)
(0.000809407 -1.31636e-08 5.25402e-08)
(0.000807878 -1.18072e-08 2.80258e-08)
(0.000806266 3.25344e-08 4.63678e-08)
(0.000804828 2.66779e-09 5.02102e-08)
(0.000803501 -2.07966e-08 5.32138e-08)
(0.000801999 5.49297e-08 4.56303e-08)
(0.000800462 7.60797e-08 3.86888e-08)
(0.000798917 2.12632e-08 5.10963e-08)
(0.00079737 1.48936e-08 5.46491e-08)
(0.000796042 -9.37469e-08 4.89811e-08)
(0.000794652 -9.84443e-08 1.70617e-08)
(0.000793094 -6.02781e-08 4.73427e-08)
(0.000791667 9.08956e-09 3.71e-08)
(0.0007902 6.31866e-08 5.56522e-08)
(0.000788725 -3.77172e-08 4.72909e-08)
(0.000787291 -7.09682e-08 3.77338e-08)
(0.000785985 -4.3922e-08 8.12083e-08)
(0.000705789 7.50397e-07 -3.53437e-06)
(0.000893484 1.99068e-05 2.11074e-06)
(0.000932921 -1.31502e-05 -4.83031e-06)
(0.00073558 6.62475e-05 -8.82178e-07)
(0.000517135 -1.4812e-05 7.97886e-06)
(0.00107325 -0.0012161 3.47242e-06)
(0.000472617 -3.82939e-05 -7.92103e-07)
(0.00086305 9.20147e-07 -2.12601e-06)
(0.000832249 2.41998e-06 -2.39662e-07)
(0.000840647 2.442e-06 1.01855e-07)
(0.00084016 1.90032e-06 -1.51816e-07)
(0.000840596 1.37622e-06 4.16837e-08)
(0.000840061 9.63886e-07 5.97016e-08)
(0.000839442 7.7792e-07 -1.01267e-07)
(0.000838498 4.17332e-07 8.1539e-08)
(0.000837137 2.55477e-07 9.75646e-08)
(0.000835796 1.97385e-07 3.2913e-08)
(0.000834176 4.26157e-08 6.7414e-08)
(0.000832673 1.46999e-07 5.63827e-08)
(0.000831201 8.98944e-08 6.17611e-08)
(0.000829495 -5.21958e-08 4.20931e-08)
(0.00082795 -7.32225e-08 2.75664e-08)
(0.00082639 -8.9894e-09 6.21229e-08)
(0.000824891 -4.9988e-08 6.88163e-08)
(0.0008234 -4.44062e-08 4.75291e-08)
(0.000821758 1.79047e-08 7.4579e-08)
(0.000820145 6.98283e-08 4.89267e-08)
(0.000818641 3.81575e-08 5.05869e-08)
(0.000817063 -5.40558e-08 8.28769e-09)
(0.000815445 4.2486e-08 7.40866e-08)
(0.000813944 7.26919e-08 2.95691e-08)
(0.000812472 5.96815e-08 4.92837e-08)
(0.000810948 1.0015e-07 -1.17291e-07)
(0.000809401 1.04062e-07 3.78043e-08)
(0.000807944 3.25741e-08 3.84701e-08)
(0.000806468 2.14932e-08 7.22201e-08)
(0.000804895 1.05932e-07 6.75083e-08)
(0.000803394 1.25715e-07 4.96571e-08)
(0.000801932 8.92006e-08 6.87761e-08)
(0.000800382 6.85222e-08 5.37739e-08)
(0.000798879 1.74846e-08 4.70806e-08)
(0.000797401 5.35378e-08 5.2111e-08)
(0.000795927 9.23411e-08 5.89877e-08)
(0.000794524 1.40541e-08 3.9594e-08)
(0.000793172 1.55323e-08 5.10908e-08)
(0.000791708 4.0034e-08 6.72044e-08)
(0.000790129 4.68237e-09 2.95634e-08)
(0.000788692 7.35334e-09 4.42943e-08)
(0.000787299 -2.23771e-08 -2.3514e-08)
(0.000786059 -2.46016e-08 8.19837e-08)
(0.00116457 8.60875e-06 5.07632e-07)
(0.00150111 -3.13551e-05 1.25502e-06)
(0.00151486 0.000103402 4.10844e-06)
(0.00127204 -0.00014459 1.08214e-05)
(0.00190549 -0.000100894 -8.46899e-06)
(0.0020357 5.74179e-05 0.000146632)
(0.00156094 9.22479e-05 -5.01679e-07)
(0.00143687 3.70315e-06 3.60313e-07)
(0.00138585 -3.32286e-07 3.47101e-07)
(0.00139986 -1.56324e-06 3.50338e-07)
(0.00139946 -1.51062e-06 3.85411e-07)
(0.00140053 -1.1675e-06 3.9953e-07)
(0.00140014 -7.95651e-07 3.69762e-07)
(0.0013987 -3.62852e-07 1.78264e-07)
(0.00139678 -4.01316e-07 2.69719e-07)
(0.0013949 -3.6285e-07 2.881e-07)
(0.00139247 -3.30768e-07 3.48901e-07)
(0.00139025 -5.15848e-07 3.96804e-07)
(0.00138785 -4.05534e-07 4.75723e-07)
(0.00138513 -2.69122e-07 2.80617e-07)
(0.00138271 -1.76784e-07 2.86181e-07)
(0.00138021 -1.52743e-07 3.63459e-07)
(0.00137756 -6.17105e-08 3.28693e-07)
(0.00137488 6.49688e-08 3.04068e-07)
(0.00137229 -4.91775e-08 3.63837e-07)
(0.0013696 -1.34349e-07 2.78336e-07)
(0.00136686 -5.864e-08 3.24524e-07)
(0.0013641 -3.38074e-08 3.40791e-07)
(0.00136173 -9.4059e-08 2.97038e-07)
(0.00135938 -1.07654e-07 5.20294e-07)
(0.00135668 3.26747e-08 3.71547e-07)
(0.00135422 8.82208e-08 3.78952e-07)
(0.00135162 6.37443e-08 4.55237e-07)
(0.00134885 6.35331e-10 3.48441e-07)
(0.00134629 -7.76773e-09 3.38755e-07)
(0.00134391 -3.13065e-08 3.10439e-07)
(0.00134156 -5.22899e-08 3.08902e-07)
(0.00133909 -2.32501e-08 3.61528e-07)
(0.00133651 -2.95634e-08 3.60164e-07)
(0.00133397 -6.3586e-09 2.98864e-07)
(0.00133151 3.49771e-08 3.32039e-07)
(0.0013291 4.12419e-08 3.46291e-07)
(0.00132664 1.18021e-07 3.69233e-07)
(0.00132423 1.26578e-07 3.03157e-07)
(0.00132182 9.2735e-08 3.38061e-07)
(0.00131939 -1.25677e-08 1.99733e-07)
(0.00131696 -6.17778e-09 3.26595e-07)
(0.0013145 5.59894e-08 2.74909e-07)
(0.00131205 3.03666e-08 3.41761e-07)
(0.00130998 1.84694e-08 3.3005e-07)
(0.0011248 9.03599e-06 -7.65042e-07)
(0.00156692 -3.95864e-05 -4.0695e-07)
(0.00141474 7.05761e-05 1.98838e-06)
(0.00140199 -0.000141317 2.62661e-06)
(0.0018785 0.000256153 -1.90902e-05)
(0.00153599 0.000235291 8.25677e-05)
(0.00130068 -5.32408e-05 -1.56942e-07)
(0.00141165 -2.00081e-05 3.55518e-07)
(0.00138064 -1.51116e-05 3.39273e-07)
(0.00139892 -1.08438e-05 3.49458e-07)
(0.00140034 -7.39926e-06 3.5118e-07)
(0.00140163 -4.91419e-06 3.49806e-07)
(0.00140096 -3.2216e-06 3.49775e-07)
(0.00139946 -2.20022e-06 3.50582e-07)
(0.00139741 -1.2416e-06 3.49329e-07)
(0.00139522 -6.55714e-07 3.5513e-07)
(0.00139275 -2.07387e-07 4.06656e-07)
(0.00139016 3.35461e-07 1.50352e-07)
(0.00138802 6.0272e-07 3.50682e-07)
(0.00138557 1.51391e-07 3.45271e-07)
(0.00138262 1.54326e-08 3.71282e-07)
(0.00138005 1.49965e-08 1.97602e-07)
(0.00137757 -1.54035e-07 5.80995e-07)
(0.00137479 4.60456e-08 3.00479e-07)
(0.00137206 7.98442e-08 3.79363e-07)
(0.00136959 1.39026e-07 3.30781e-07)
(0.00136706 -3.78615e-08 3.00722e-07)
(0.00136439 1.49537e-08 3.41381e-07)
(0.00136168 1.79654e-07 3.5932e-07)
(0.00135924 1.31536e-07 1.76663e-07)
(0.00135682 3.06646e-08 3.5799e-07)
(0.00135408 -3.93714e-08 3.7013e-07)
(0.00135145 -2.00548e-07 2.93674e-07)
(0.00134896 -1.75937e-07 7.95292e-07)
(0.00134651 9.67476e-09 3.15541e-07)
(0.00134403 6.27014e-08 3.38906e-07)
(0.00134147 6.52877e-08 3.27857e-07)
(0.00133896 -2.5871e-08 3.36067e-07)
(0.00133652 -6.81233e-08 3.06664e-07)
(0.00133404 -1.07101e-07 2.47688e-07)
(0.00133154 -4.01779e-08 3.34894e-07)
(0.00132914 -2.06136e-08 3.64388e-07)
(0.00132668 3.86249e-08 2.98121e-07)
(0.00132415 4.78207e-08 2.84464e-07)
(0.00132172 -1.38581e-09 3.30938e-07)
(0.00131935 -2.53184e-08 3.28633e-07)
(0.00131696 -5.38712e-08 3.0184e-07)
(0.00131452 -4.5714e-08 3.52932e-07)
(0.00131209 2.41923e-08 3.54586e-07)
(0.00130996 2.70808e-08 3.21989e-07)
(0.00110967 1.692e-05 1.37606e-06)
(0.00156875 -1.01572e-05 1.4374e-06)
(0.00135937 5.67844e-05 -6.29859e-07)
(0.00145286 -2.1432e-05 5.61025e-06)
(0.00136576 -3.17143e-05 4.12245e-05)
(0.00107741 -0.000187655 -7.56157e-05)
(0.00141785 -5.89044e-05 3.05203e-06)
(0.00144418 -4.7009e-05 3.5471e-07)
(0.00139707 -3.16638e-05 5.12286e-07)
(0.00140964 -1.89608e-05 3.52945e-07)
(0.00140697 -1.19296e-05 3.52054e-07)
(0.00140581 -7.46608e-06 3.53207e-07)
(0.00140357 -4.68955e-06 3.50687e-07)
(0.0014012 -2.96459e-06 3.48548e-07)
(0.00139872 -1.82587e-06 3.49427e-07)
(0.0013962 -1.05949e-06 4.07345e-07)
(0.00139371 -6.43138e-07 3.85351e-07)
(0.00139126 -3.4659e-07 2.78343e-07)
(0.00138762 -2.93604e-07 3.83515e-07)
(0.0013844 -1.81866e-07 3.46569e-07)
(0.00138253 -3.80564e-08 2.92114e-07)
(0.00138 3.21923e-08 3.23418e-07)
(0.0013776 1.09263e-08 3.38446e-07)
(0.00137517 -2.56368e-07 3.83248e-07)
(0.00137241 -2.72676e-07 3.50476e-07)
(0.00136945 -3.87719e-07 3.44373e-07)
(0.0013667 -2.40654e-07 4.31791e-07)
(0.00136438 -2.15859e-07 3.38966e-07)
(0.00136187 -7.57417e-08 4.00675e-07)
(0.00135919 2.98004e-08 3.72529e-07)
(0.00135647 -7.40312e-08 3.22165e-07)
(0.00135393 -9.36062e-08 2.81291e-07)
(0.00135145 -9.50557e-09 4.3121e-07)
(0.00134912 7.92505e-08 2.76257e-07)
(0.00134659 9.34518e-08 4.13823e-07)
(0.00134398 8.24166e-08 3.53656e-07)
(0.00134145 3.33828e-08 2.931e-07)
(0.00133892 3.42973e-08 3.3972e-07)
(0.00133641 -8.97437e-09 3.173e-07)
(0.00133401 3.79884e-08 3.1995e-07)
(0.00133162 1.22671e-07 3.7164e-07)
(0.0013292 6.53106e-08 3.85094e-07)
(0.00132673 1.75705e-08 2.64088e-07)
(0.00132418 -4.15807e-08 5.32984e-07)
(0.00132173 1.57278e-08 3.62266e-07)
(0.00131933 2.69235e-08 3.42412e-07)
(0.00131693 -1.66004e-08 2.84005e-07)
(0.00131459 -9.15934e-10 3.51728e-07)
(0.00131214 1.54486e-08 3.33172e-07)
(0.00130992 3.06809e-09 3.18851e-07)
(0.00109744 2.07976e-05 -9.91442e-08)
(0.00160019 -1.24039e-06 9.07764e-07)
(0.00137548 8.07372e-05 4.01713e-07)
(0.00149589 -2.57809e-05 3.1015e-06)
(0.00160917 0.000205626 -7.78869e-06)
(0.0011027 0.00132512 0.000128481)
(0.00194042 -0.00014779 1.72896e-05)
(0.0015056 -4.21012e-05 4.2088e-07)
(0.00141542 -3.28264e-05 3.58118e-07)
(0.00142382 -1.88782e-05 2.53533e-07)
(0.00141485 -1.16831e-05 3.53148e-07)
(0.00141077 -7.15504e-06 3.5164e-07)
(0.00140664 -4.39317e-06 3.5146e-07)
(0.00140308 -2.70436e-06 3.51616e-07)
(0.00139981 -1.66616e-06 3.50378e-07)
(0.00139671 -1.11041e-06 3.49141e-07)
(0.00139365 -8.23368e-07 3.27511e-07)
(0.0013906 -6.35779e-07 3.90064e-07)
(0.00138823 -7.65652e-07 2.90599e-07)
(0.00138589 -2.09663e-07 3.04643e-07)
(0.00138288 -4.1574e-08 3.8352e-07)
(0.00138011 -7.45777e-08 3.47817e-07)
(0.00137721 2.39416e-08 3.86363e-07)
(0.00137444 -2.35472e-07 4.15651e-07)
(0.00137189 -3.07759e-07 2.98956e-07)
(0.00136963 -4.11432e-07 4.58594e-07)
(0.00136728 -1.5878e-07 3.75603e-07)
(0.0013646 -1.1031e-07 3.52065e-07)
(0.00136199 -2.0466e-07 3.7169e-07)
(0.00135924 -2.33504e-07 2.68118e-07)
(0.00135667 -9.95856e-08 3.265e-07)
(0.00135416 -4.09543e-08 3.65644e-07)
(0.00135167 8.00029e-08 3.35648e-07)
(0.00134909 8.81903e-08 3.47082e-07)
(0.00134651 6.42416e-08 3.6596e-07)
(0.00134395 1.02275e-07 2.38441e-07)
(0.00134141 2.3731e-07 3.16736e-07)
(0.0013389 1.34431e-07 3.41497e-07)
(0.00133653 1.77376e-07 3.80766e-07)
(0.00133421 1.97025e-07 3.76643e-07)
(0.00133158 7.71007e-08 3.26602e-07)
(0.001329 2.15107e-07 2.96237e-07)
(0.00132654 9.01505e-08 4.00248e-07)
(0.00132414 1.98095e-07 3.14884e-07)
(0.00132181 1.37172e-07 3.43487e-07)
(0.00131931 1.24615e-07 3.0162e-07)
(0.00131692 1.07672e-07 3.05033e-07)
(0.00131456 1.4007e-07 3.88697e-07)
(0.00131209 6.89304e-09 3.20957e-07)
(0.00130993 -1.70457e-08 3.21247e-07)
(0.00108554 7.85216e-06 6.36443e-07)
(0.00162957 -6.72174e-06 5.78748e-07)
(0.00134658 5.29736e-05 3.04973e-06)
(0.00155928 -4.10984e-05 8.02935e-06)
(0.00103541 0.000229857 -4.77324e-06)
(0.00218354 0.00110797 -0.000264529)
(0.00137125 0.000152255 0.00021887)
(0.00152246 -3.27154e-05 4.26318e-07)
(0.00142843 -1.87216e-05 5.31749e-07)
(0.0014363 -1.00513e-05 4.32923e-07)
(0.00142176 -5.83294e-06 3.89197e-07)
(0.00141501 -3.39207e-06 2.35483e-07)
(0.00140918 -2.03791e-06 3.08008e-07)
(0.00140464 -1.25249e-06 3.4987e-07)
(0.00140073 -7.96166e-07 4.03668e-07)
(0.00139726 -5.02443e-07 3.92096e-07)
(0.00139431 -2.69962e-07 3.91618e-07)
(0.00139134 -1.08358e-07 3.45478e-07)
(0.00138815 2.11421e-07 3.21711e-07)
(0.00138531 2.76035e-07 3.61225e-07)
(0.0013827 4.10471e-07 3.45719e-07)
(0.00138008 1.82766e-07 3.23774e-07)
(0.0013774 -7.74016e-09 3.12354e-07)
(0.00137475 1.80801e-07 3.81558e-07)
(0.00137219 1.93446e-07 5.90321e-07)
(0.00136964 3.06017e-07 3.58471e-07)
(0.00136708 1.24197e-07 4.10028e-07)
(0.00136432 2.52343e-08 3.09529e-07)
(0.00136172 -5.33694e-08 5.93338e-07)
(0.00135932 -6.59509e-08 3.15568e-07)
(0.00135671 -7.20365e-08 3.72884e-07)
(0.00135415 -1.41618e-08 3.55135e-07)
(0.00135161 -1.07106e-07 2.46562e-07)
(0.0013491 -8.76956e-08 3.35471e-07)
(0.0013466 -9.40473e-08 3.60288e-07)
(0.00134419 -1.21646e-07 3.42365e-07)
(0.00134149 -1.59191e-07 2.98473e-07)
(0.00133885 1.6784e-08 3.34826e-07)
(0.00133649 9.76119e-08 3.3108e-07)
(0.00133388 6.69207e-08 3.60851e-07)
(0.00133164 -6.12285e-09 3.20884e-07)
(0.00132921 2.98594e-08 2.76318e-07)
(0.00132671 1.62721e-08 3.68584e-07)
(0.00132424 3.76748e-08 1.5766e-07)
(0.00132163 6.54137e-08 3.15306e-07)
(0.00131929 3.31605e-08 3.28826e-07)
(0.00131695 9.44674e-08 4.13979e-07)
(0.00131447 -2.34531e-08 3.47462e-07)
(0.00131195 1.14496e-08 3.12859e-07)
(0.00130993 -7.96371e-09 2.90875e-07)
(0.00108354 -7.22186e-07 -8.63065e-07)
(0.00164245 1.21505e-05 7.9929e-07)
(0.00133138 9.29918e-06 -1.49391e-06)
(0.00163941 6.18172e-05 2.52922e-06)
(0.000918245 -0.000176282 6.02312e-05)
(-0.000530599 -0.000824405 6.01655e-05)
(0.00194725 -0.000179645 -6.35413e-05)
(0.00154106 1.48644e-05 2.80759e-07)
(0.00144131 1.10804e-05 3.33696e-07)
(0.00144002 6.0631e-06 3.61617e-07)
(0.00142322 3.70731e-06 3.37503e-07)
(0.00141554 2.22789e-06 3.29462e-07)
(0.00140933 1.32693e-06 3.84865e-07)
(0.00140464 7.78282e-07 3.52583e-07)
(0.00140075 4.38476e-07 2.86998e-07)
(0.00139737 2.45339e-07 3.25511e-07)
(0.00139414 1.28374e-07 3.48827e-07)
(0.00139121 -1.30328e-07 3.1218e-07)