/*--------------------------------*- C++ -*----------------------------------*\
| =========                 |                                                 |
| \\      /  F ield         | OpenFOAM: The Open Source CFD Toolbox           |
|  \\    /   O peration     | Version:  5.0                                   |
|   \\  /    A nd           | Web:      www.OpenFOAM.org                      |
|    \\/     M anipulation  |                                                 |
\*---------------------------------------------------------------------------*/
FoamFile
{
    version     2.0;
    format      ascii;
    class       volVectorField;
    location    "0.2";
    object      U_0;
}
// * * * * * * * * * * * * * * * * * * * * * * * * * * * * * * * * * * * * * //

dimensions      [0 1 -1 0 0 0 0];

internalField   nonuniform List<vector> 
4398
(
(0.000691833 4.5448e-06 -3.5951e-06)
(0.000906271 -1.68926e-05 2.1385e-06)
(0.000886857 7.22656e-05 1.03793e-06)
(0.000643115 -7.32406e-05 6.70403e-06)
(0.000720004 -9.51276e-05 -8.3473e-06)
(0.000526017 -1.07447e-05 9.65968e-05)
(0.000515964 2.9915e-05 -1.36262e-06)
(0.000856413 -1.89491e-06 -2.11766e-06)
(0.000828365 -3.22748e-06 -2.33742e-07)
(0.00083802 -3.04559e-06 1.01328e-07)
(0.000838482 -2.33868e-06 4.84116e-09)
(0.000839539 -1.64799e-06 3.74221e-08)
(0.000839432 -1.1278e-06 8.71922e-08)
(0.000838849 -7.64172e-07 4.87147e-08)
(0.000837917 -5.40745e-07 3.57974e-08)
(0.000836799 -3.20134e-07 1.38309e-07)
(0.000835357 -2.2133e-07 5.45811e-08)
(0.000834029 -2.39072e-07 7.64367e-08)
(0.000832803 -1.33133e-07 8.52043e-08)
(0.000831225 3.25543e-08 5.28654e-08)
(0.000829597 6.61276e-08 4.17521e-08)
(0.000828008 1.31191e-08 1.89464e-08)
(0.000826449 -1.98988e-08 4.16596e-08)
(0.0008248 -7.26325e-09 -4.21753e-08)
(0.000823241 8.93694e-08 5.48317e-08)
(0.000821579 2.20777e-08 5.89159e-09)
(0.000819919 2.01537e-08 5.6014e-08)
(0.000818399 -3.39434e-08 5.70674e-08)
(0.000817061 -1.37135e-07 1.11046e-07)
(0.00081566 -1.55672e-07 4.93824e-08)
(0.000813986 -1.4435e-07 2.72807e-08)
(0.000812459 -1.19313e-07 3.29075e-08)
(0.000810853 7.30625e-08 2.33817e-08)
(0.000809303 1.55407e-09 5.87488e-09)
(0.000807809 -4.36147e-08 4.76211e-08)
(0.000806299 -4.17266e-08 2.86556e-08)
(0.000804849 -8.22969e-08 6.69216e-08)
(0.000803319 2.97492e-09 4.63635e-08)
(0.000801828 6.33465e-08 2.28457e-08)
(0.000800417 1.14996e-07 6.32407e-08)
(0.000798915 9.09039e-08 4.81707e-08)
(0.000797402 5.25057e-08 4.02576e-08)
(0.000795935 -2.65117e-08 -8.19543e-09)
(0.000794457 -8.35209e-08 6.95528e-08)
(0.000792964 -1.4706e-08 5.82512e-08)
(0.00079154 4.52216e-09 2.24561e-08)
(0.000790182 -8.22892e-09 5.0826e-08)
(0.000788704 -1.33796e-08 3.49762e-08)
(0.000787146 -3.10193e-08 4.5165e-08)
(0.00078582 -1.93589e-08 8.01595e-08)
(0.000677909 1.18574e-05 -4.29417e-06)
(0.000957167 -1.91033e-05 1.64916e-06)
(0.000852871 2.96037e-05 -1.50197e-06)
(0.000871513 -7.86251e-05 4.59327e-06)
(0.000623687 7.11063e-05 1.49438e-05)
(0.00188801 0.000561454 6.00254e-05)
(0.000427578 -2.15058e-05 -7.34183e-07)
(0.000842209 -2.06622e-05 -1.9966e-06)
(0.000827012 -1.38848e-05 -1.37374e-07)
(0.000838825 -9.48682e-06 1.28151e-07)
(0.000839976 -6.30623e-06 5.42967e-08)
(0.000840872 -4.11732e-06 6.09244e-08)
(0.000840504 -2.63608e-06 5.5773e-08)
(0.000839659 -1.63525e-06 5.50929e-08)
(0.000838536 -9.49251e-07 5.40465e-08)
(0.000837115 -4.80101e-07 -1.83513e-08)
(0.000835649 -1.65983e-07 4.4105e-08)
(0.000834132 1.62746e-07 6.69203e-08)
(0.000832714 6.46444e-07 4.42841e-08)
(0.00083125 1.43844e-07 5.0636e-08)
(0.000829412 -7.64138e-09 3.88917e-08)
(0.00082779 -1.242e-09 4.52618e-08)
(0.000826279 -1.05343e-07 8.28261e-08)
(0.000824877 8.04648e-10 8.16545e-08)
(0.000823289 4.65173e-08 4.6964e-08)
(0.000821662 -2.44934e-08 2.93331e-08)
(0.000820177 7.40001e-08 6.4202e-08)
(0.000818556 7.24525e-08 5.13097e-08)
(0.000816892 6.69579e-08 1.49692e-08)
(0.00081542 4.54474e-08 4.26524e-08)
(0.000814008 -3.81205e-08 3.54212e-08)
(0.000812559 -5.05593e-08 7.60424e-08)
(0.00081109 -9.07236e-08 7.43912e-08)
(0.000809347 -1.39713e-07 5.4777e-08)
(0.000807741 -3.34487e-08 4.76206e-08)
(0.000806286 2.3905e-09 6.30732e-08)
(0.000804846 2.69431e-08 6.16839e-08)
(0.000803386 8.18494e-09 4.55242e-08)
(0.000801889 8.83656e-08 7.26546e-08)
(0.000800379 6.05632e-08 1.18995e-07)
(0.000798845 1.47599e-08 4.68774e-08)
(0.000797325 -4.61318e-08 3.42343e-08)
(0.000795836 -5.43941e-08 3.28535e-08)
(0.000794473 -4.48753e-08 8.91374e-08)
(0.000793064 1.93903e-09 4.69647e-08)
(0.00079155 5.45484e-08 4.8764e-08)
(0.000790061 4.65533e-08 3.97397e-08)
(0.000788639 -2.77954e-08 2.04742e-08)
(0.000787182 -5.01026e-08 5.10583e-08)
(0.000785896 -3.70386e-08 8.45807e-08)
(0.000661295 9.08038e-06 -3.31216e-06)
(0.000930319 -6.75584e-06 2.20539e-06)
(0.000806234 2.69391e-05 -8.09697e-09)
(0.000749525 -2.70515e-05 7.93206e-06)
(0.000296648 8.98958e-05 -1.34614e-05)
(0.000218029 -3.37123e-05 -7.01847e-06)
(0.000483645 -2.45067e-05 6.38889e-07)
(0.000868252 -3.53247e-05 -2.38222e-06)
(0.000842229 -2.3229e-05 -1.85404e-07)
(0.000847583 -1.41749e-05 9.87583e-08)
(0.000845254 -8.89574e-06 4.34544e-08)
(0.000844166 -5.54141e-06 5.76422e-08)
(0.000842561 -3.43814e-06 5.36241e-08)
(0.000840973 -2.12574e-06 5.33243e-08)
(0.000839371 -1.29782e-06 5.31718e-08)
(0.000837784 -8.2435e-07 3.85023e-08)
(0.000836164 -4.59309e-07 5.04328e-08)
(0.000835045 -3.21201e-07 8.32437e-08)
(0.000832778 -3.49277e-07 7.85791e-08)
(0.000830407 -7.05819e-08 4.49315e-08)
(0.000829416 6.15094e-08 6.2131e-08)
(0.000827887 1.96357e-07 8.38575e-08)
(0.000826452 3.36075e-07 5.2734e-08)
(0.000824991 2.09459e-07 2.7571e-08)
(0.00082321 6.11681e-08 5.56185e-08)
(0.000821613 9.19468e-08 5.16514e-08)
(0.000820041 7.72043e-08 7.61311e-08)
(0.00081839 5.32318e-08 5.61587e-08)
(0.000817027 1.28801e-07 2.69901e-07)
(0.000815529 1.95336e-07 2.63612e-08)
(0.000813866 1.33139e-07 5.87617e-08)
(0.000812394 1.10957e-07 4.21006e-08)
(0.000810742 -2.63307e-08 8.09009e-08)
(0.000809374 -1.31715e-07 6.61438e-08)
(0.000807987 -9.92349e-08 -3.18713e-08)
(0.000806375 -7.56326e-08 5.04473e-08)
(0.000804857 -2.99873e-08 9.20767e-08)
(0.000803396 -3.564e-09 4.94446e-08)
(0.000801893 -1.90108e-08 3.0582e-08)
(0.000800325 -2.74675e-08 5.96553e-08)
(0.000798782 2.27014e-09 4.51245e-08)
(0.000797316 -7.78302e-09 5.30197e-08)
(0.000795937 7.12175e-08 6.08008e-08)
(0.000794528 7.22348e-08 5.7128e-08)
(0.000793088 -3.58193e-08 4.10709e-08)
(0.000791595 -3.11374e-08 4.68827e-08)
(0.000790079 2.93552e-08 6.65491e-08)
(0.000788583 5.13513e-08 2.66354e-08)
(0.000787134 2.86798e-08 4.86177e-08)
(0.000785929 8.17562e-09 8.80393e-08)
(0.000664093 9.36775e-06 -4.43699e-06)
(0.000975724 -8.81796e-06 2.20023e-06)
(0.000827797 4.83808e-05 -6.60184e-07)
(0.000906093 -2.84026e-05 3.19902e-06)
(0.000545962 7.29522e-05 9.09403e-06)
(0.000212819 4.99896e-05 2.82468e-05)
(0.000416859 -9.16963e-06 8.83655e-06)
(0.00090987 -3.13858e-05 -1.58942e-06)
(0.000853351 -2.3144e-05 -1.97791e-07)
(0.000856887 -1.33674e-05 -5.88463e-08)
(0.000850858 -7.93195e-06 5.23164e-08)
(0.00084775 -4.7222e-06 6.06457e-08)
(0.000844808 -2.88557e-06 5.3311e-08)
(0.000842355 -1.71164e-06 5.13614e-08)
(0.000840175 -9.98883e-07 5.09142e-08)
(0.000838172 -6.20948e-07 5.024e-08)
(0.000836283 -4.37252e-07 5.1794e-08)
(0.000834273 -3.20262e-07 5.31342e-08)
(0.00083303 -6.81131e-07 -2.76476e-08)
(0.000831765 -1.13608e-07 -4.0286e-08)
(0.000829746 1.06998e-07 3.52865e-08)
(0.000828132 1.0055e-07 4.47511e-08)
(0.000826294 1.74469e-07 6.2364e-08)
(0.000824532 3.82114e-08 -5.72874e-09)
(0.000823142 1.33093e-09 8.95105e-08)
(0.000821681 3.15435e-08 9.01529e-08)
(0.000820128 -2.64277e-08 5.6342e-08)
(0.00081862 2.53292e-08 3.64418e-08)
(0.00081707 9.87172e-08 2.17537e-08)
(0.000815425 5.07097e-08 1.36137e-07)
(0.000813902 1.4936e-07 5.96921e-08)
(0.00081236 9.45287e-08 4.07717e-08)
(0.000810787 3.3048e-08 7.97354e-08)
(0.000809257 1.31913e-07 4.38101e-08)
(0.000807812 4.09167e-08 6.58288e-08)
(0.000806373 1.35013e-08 -3.76958e-08)
(0.000804936 -8.82967e-09 5.77584e-08)
(0.000803399 -6.73617e-08 4.40425e-08)
(0.000801859 -1.48464e-07 5.57303e-08)
(0.000800406 -1.8356e-07 1.14149e-08)
(0.000798869 -1.91137e-07 4.65893e-08)
(0.000797411 -3.73277e-08 2.72262e-09)
(0.000795936 -9.40412e-08 6.77906e-08)
(0.000794339 2.72231e-08 3.35774e-08)
(0.000792935 -5.92898e-08 5.10591e-08)
(0.000791631 -9.27773e-08 7.14195e-08)
(0.000790164 -1.2146e-07 -1.89357e-08)
(0.000788638 -8.63029e-08 2.18411e-08)
(0.000787129 -8.30786e-10 4.88704e-08)
(0.00078585 1.67813e-08 8.4818e-08)
(0.000644097 9.30565e-07 -3.31571e-06)
(0.000970957 -9.08522e-06 1.60986e-06)
(0.000803504 2.27687e-05 1.12596e-09)
(0.000852271 -3.71637e-05 4.93146e-06)
(0.000268814 0.00012633 -7.46978e-07)
(-2.54076e-05 0.000486722 1.37477e-05)
(0.000376885 -0.000146025 -5.81358e-05)
(0.000982007 -1.30175e-05 -1.5989e-06)
(0.000866025 -7.78959e-06 -7.64596e-07)
(0.000866739 -3.91951e-06 -5.31035e-08)
(0.000856141 -2.24597e-06 -7.96318e-09)
(0.000850521 -1.27434e-06 -7.18827e-09)
(0.000846352 -7.33659e-07 -5.99834e-08)
(0.000843349 -4.93211e-07 4.80135e-08)
(0.000840744 -3.56526e-07 6.66987e-08)
(0.000838492 -2.29524e-07 4.7007e-08)
(0.000836544 -9.13093e-08 5.05581e-08)
(0.000834744 1.18965e-08 5.05297e-08)
(0.000833039 2.9677e-07 8.32596e-08)
(0.000831393 9.26466e-08 3.83045e-08)
(0.000829684 2.99566e-07 4.56604e-08)
(0.000827971 -3.24335e-09 5.39019e-08)
(0.000826374 -1.54902e-07 6.9989e-08)
(0.000824774 -1.7702e-09 3.21506e-08)
(0.000823202 4.69365e-08 6.51962e-08)
(0.000821579 2.41148e-09 7.2389e-08)
(0.000820033 6.91939e-09 1.17263e-07)
(0.000818547 -3.07573e-08 5.73882e-08)
(0.000817058 -2.9362e-08 6.34256e-08)
(0.000815592 3.46497e-09 6.67684e-08)
(0.00081392 -1.782e-08 2.42025e-08)
(0.000812248 -1.69132e-08 5.18035e-08)
(0.000810788 3.87641e-08 8.30703e-08)
(0.000809384 7.07853e-08 4.98111e-08)
(0.000807839 9.83364e-08 5.45422e-08)
(0.000806313 8.66641e-08 5.08302e-08)
(0.000804756 5.15561e-08 8.98838e-09)
(0.000803222 -3.99642e-08 4.52086e-08)
(0.000801748 -4.6762e-08 5.0658e-08)
(0.000800272 -7.98171e-08 5.44033e-08)
(0.000798965 -9.03984e-08 5.91221e-08)
(0.000797438 -5.11641e-08 4.12134e-08)
(0.000796019 -3.54882e-08 3.88731e-08)
(0.000794572 -1.16702e-07 2.69863e-08)
(0.000792938 -5.12451e-09 5.53621e-08)
(0.000791518 -3.07693e-08 5.08662e-08)
(0.000790088 -7.39393e-08 6.54714e-08)
(0.000788734 -1.013e-07 6.80206e-08)
(0.000787263 -6.90128e-08 5.79394e-08)
(0.00078591 -5.39478e-09 9.54686e-08)
(0.000654936 -1.56198e-06 -4.1841e-06)
(0.000998516 -1.93647e-06 1.4018e-06)
(0.000820347 -4.63145e-06 -1.43384e-06)
(0.00105357 2.71054e-05 2.64016e-06)
(0.000123403 -3.75857e-05 2.05998e-05)
(0.000115797 -0.000273803 -2.34677e-05)
(0.000490451 7.40008e-05 9.77436e-05)
(0.000957998 2.16412e-05 -2.6012e-07)
(0.000863379 1.36867e-05 -6.38085e-07)
(0.00086385 7.81567e-06 2.05528e-07)
(0.000854185 4.52396e-06 7.1049e-08)
(0.000849652 2.65391e-06 -4.01858e-08)
(0.000845792 1.6266e-06 8.3926e-09)
(0.000842832 9.30646e-07 5.15148e-08)
(0.000840508 5.00785e-07 3.65122e-08)
(0.000838505 2.77415e-07 2.41407e-09)
(0.000836586 1.69884e-07 5.30371e-08)
(0.000834758 4.66575e-08 3.40188e-08)
(0.00083313 -1.69351e-08 6.20444e-08)
(0.000831768 -2.41874e-07 -3.98748e-08)
(0.000829625 -5.85428e-07 2.45046e-08)
(0.000827564 -3.00251e-07 -2.7582e-07)
(0.000826296 -2.23217e-07 5.76645e-08)
(0.000824784 -9.75289e-08 1.69076e-08)
(0.000823147 8.53978e-08 1.73132e-08)
(0.000821632 4.06223e-08 4.71216e-08)
(0.000820087 1.30124e-07 2.06792e-08)
(0.000818575 1.34119e-07 4.5286e-08)
(0.000817113 1.09858e-07 5.07831e-08)
(0.00081544 -8.95418e-09 3.25322e-08)
(0.000813877 -9.14127e-08 4.98248e-08)
(0.000812431 -3.37676e-08 8.37714e-08)
(0.000810897 4.67789e-08 7.05594e-08)
(0.000809331 3.60688e-08 4.85945e-08)
(0.000807831 1.01698e-09 5.32888e-08)
(0.000806314 -1.84368e-08 5.82078e-08)
(0.000804778 8.252e-09 5.10067e-08)
(0.000803277 6.44346e-08 5.26155e-08)
(0.00080181 1.33414e-07 5.32328e-08)
(0.000800352 1.5058e-07 1.71562e-08)
(0.000798905 1.54124e-07 7.15222e-09)
(0.00079748 -3.33065e-08 8.35786e-08)
(0.000795854 4.79301e-08 5.85419e-08)
(0.000794377 -9.82207e-08 5.63078e-08)
(0.000793043 -4.57208e-08 6.23531e-08)
(0.000791545 -1.65459e-08 4.75834e-08)
(0.000790077 -4.14237e-08 4.78588e-09)
(0.000788644 -2.57289e-08 3.78733e-08)
(0.000787249 -5.45648e-08 7.71057e-08)
(0.000785943 -2.45029e-08 8.99282e-08)
(0.00064325 -8.67622e-06 -3.03667e-06)
(0.000957009 2.40361e-07 2.01855e-06)
(0.000830878 -4.70358e-05 4.09474e-07)
(0.000866599 2.48503e-05 5.59019e-06)
(0.000463427 -0.000109904 1.39899e-06)
(-2.20852e-06 0.000221431 -3.03523e-06)
(0.000297462 0.000102222 4.139e-05)
(0.000901766 3.32081e-05 -1.92377e-06)
(0.000850066 2.30393e-05 -4.04758e-07)
(0.0008552 1.32032e-05 1.12392e-07)
(0.000849641 8.09956e-06 3.19927e-08)
(0.000846872 4.92576e-06 5.35655e-08)
(0.000844182 3.00169e-06 4.93347e-08)
(0.000841932 1.8873e-06 5.1523e-08)
(0.000839922 1.21213e-06 5.37931e-08)
(0.000838075 7.61683e-07 5.19389e-08)
(0.000836254 5.43129e-07 5.07057e-08)
(0.000834509 2.82747e-07 6.83349e-08)
(0.000832679 5.14179e-08 6.88387e-08)
(0.000830684 -1.66963e-07 5.74192e-08)
(0.000829613 -5.13811e-07 7.26269e-08)
(0.000828425 -1.56962e-07 5.51888e-08)
(0.000826628 -6.90966e-08 5.67942e-08)
(0.000825161 -1.09797e-07 5.15373e-08)
(0.000823375 -1.93902e-07 7.48463e-08)
(0.000821634 -1.82617e-08 6.84135e-08)
(0.000820149 -3.73409e-08 4.51275e-08)
(0.00081852 5.99466e-08 2.13107e-08)
(0.000816879 -4.69054e-08 7.80277e-08)
(0.00081534 -7.33831e-08 4.79877e-08)
(0.000813889 -2.377e-08 4.46584e-08)
(0.000812421 1.18726e-08 6.62587e-08)
(0.000810875 -2.94576e-09 4.41469e-08)
(0.000809327 2.83574e-08 4.94376e-08)
(0.000807771 1.57763e-08 5.35393e-08)
(0.000806322 8.00483e-08 5.50023e-08)
(0.000804859 4.93562e-08 4.80494e-08)
(0.000803378 1.05323e-07 4.07914e-08)
(0.000801856 8.9877e-08 4.88481e-08)
(0.000800298 1.18825e-07 8.3291e-09)
(0.000798735 8.88289e-08 5.95689e-08)
(0.000797304 1.12311e-07 6.02041e-08)
(0.000795937 1.61368e-08 5.71182e-08)
(0.000794454 1.18632e-07 3.49751e-08)
(0.00079304 9.00029e-08 5.26889e-08)
(0.000791524 5.78526e-08 4.71609e-08)
(0.000790076 3.99217e-08 1.81651e-08)
(0.000788717 3.50313e-08 4.1193e-08)
(0.000787265 -3.74124e-09 5.5686e-08)
(0.000786008 -3.18363e-08 7.71324e-08)
(0.000670742 -1.38708e-05 -4.29389e-06)
(0.000945772 -8.76604e-06 2.02111e-06)
(0.000837109 -4.99069e-05 -2.15137e-06)
(0.000801086 -5.65889e-06 6.06938e-06)
(0.000273614 -0.000151191 6.54366e-06)
(0.000248973 -0.000237827 -8.46432e-06)
(0.000390255 6.55398e-05 6.51414e-06)
(0.000862157 3.28628e-05 -2.15072e-06)
(0.000837044 2.23139e-05 -1.51252e-07)
(0.000845043 1.35839e-05 1.12917e-07)
(0.000843758 8.51759e-06 4.64985e-08)
(0.000843231 5.3005e-06 5.59751e-08)
(0.000841964 3.30379e-06 5.23608e-08)
(0.000840576 2.05845e-06 5.29337e-08)
(0.000839089 1.26407e-06 5.2499e-08)
(0.000837661 6.91597e-07 5.38011e-08)
(0.000835983 2.9438e-07 2.79334e-08)
(0.00083414 1.55492e-07 8.17994e-08)
(0.000832567 4.55585e-09 4.06915e-08)
(0.000831061 1.01546e-07 6.54985e-08)
(0.000829639 3.61416e-07 7.01484e-08)
(0.00082812 3.76609e-08 4.87453e-08)
(0.000826355 3.90906e-09 4.46809e-08)
(0.000824628 -5.43715e-08 5.05717e-08)
(0.000823262 -2.31434e-07 6.77685e-08)
(0.000821828 -1.2931e-07 5.81964e-08)
(0.000820185 -9.55261e-08 5.03812e-08)
(0.000818563 -1.03027e-07 7.24025e-08)
(0.000816946 1.87728e-08 2.12511e-08)
(0.000815469 1.19789e-08 3.60289e-08)
(0.000813984 5.19833e-08 -4.2157e-08)
(0.000812457 2.1956e-08 -3.54419e-08)
(0.000810918 5.7147e-09 6.13521e-08)
(0.000809354 -1.53193e-08 5.06884e-08)
(0.000807896 1.99198e-08 5.0367e-08)
(0.000806356 9.11614e-08 2.21463e-08)
(0.000804809 1.50388e-08 4.86423e-08)
(0.000803327 1.56035e-08 5.98724e-08)
(0.000801826 1.42127e-08 4.76997e-08)
(0.00080035 4.50282e-08 6.29633e-08)
(0.000798897 4.89782e-08 5.74776e-08)
(0.000797389 1.42517e-07 5.80552e-08)
(0.000795862 1.1478e-07 2.58747e-08)
(0.00079447 1.07683e-07 4.53703e-08)
(0.000792967 1.07736e-07 6.53431e-08)
(0.000791483 6.92436e-08 4.94075e-08)
(0.000790048 1.11342e-07 5.02301e-08)
(0.00078859 8.42425e-08 4.97583e-08)
(0.000787165 5.65776e-08 4.23858e-08)
(0.000785988 1.08919e-08 8.15197e-08)
(0.000674094 4.82728e-07 -4.59872e-06)
(0.000946623 1.44116e-05 8.69551e-07)
(0.000853811 -6.52045e-05 1.95424e-06)
(0.000713669 9.06432e-05 9.64708e-06)
(0.000313937 -0.000123287 6.02863e-07)
(0.000215789 -9.91894e-05 -1.55952e-05)
(0.000462518 2.21137e-05 -1.93895e-06)
(0.000842259 1.53636e-05 -2.03765e-06)
(0.000826076 1.12058e-05 -1.50888e-07)
(0.000837823 7.93687e-06 1.2173e-07)
(0.000839204 5.38083e-06 5.04044e-08)
(0.000840303 3.53798e-06 5.74673e-08)
(0.000840097 2.2979e-06 5.3464e-08)
(0.000839362 1.49582e-06 5.32713e-08)
(0.000838201 9.82956e-07 6.78818e-08)
(0.000836856 6.12325e-07 6.41774e-08)
(0.000835579 2.2882e-07 6.37422e-08)
(0.000834144 2.65629e-07 1.57916e-07)
(0.00083261 1.34221e-07 1.33734e-08)
(0.000831128 1.12344e-07 1.33634e-08)
(0.000829531 8.66074e-08 2.60918e-08)
(0.000827977 -4.92703e-08 7.86981e-08)
(0.000826512 -9.21778e-08 6.36395e-08)
(0.000824866 -9.06284e-08 4.60588e-08)
(0.000823281 -3.57186e-09 3.87091e-08)
(0.000821804 -9.81743e-08 2.55665e-08)
(0.000820182 -6.69365e-08 7.38992e-08)
(0.000818664 -4.84777e-08 6.65914e-08)
(0.000817023 8.46013e-08 4.26512e-08)
(0.000815382 3.02535e-08 4.35367e-08)
(0.000813902 5.28015e-08 6.03736e-08)
(0.000812363 1.33966e-08 6.17586e-08)
(0.000810829 -8.25502e-08 4.34641e-09)
(0.000809344 3.10187e-08 3.97037e-08)
(0.000807903 2.8737e-08 7.95208e-08)
(0.000806315 -4.93532e-08 3.98664e-08)
(0.000804764 1.1372e-08 4.98546e-08)
(0.000803377 -6.47702e-08 5.49386e-08)
(0.000801892 -8.74508e-08 5.3346e-08)
(0.000800341 -1.26536e-07 5.07233e-08)
(0.000798856 -9.16045e-08 5.39255e-08)
(0.000797386 -1.0587e-07 4.53281e-08)
(0.000795893 -2.53544e-08 5.29402e-08)
(0.000794445 9.35591e-09 -1.03413e-09)
(0.000792992 -3.43531e-08 3.79672e-08)
(0.000791528 -4.68015e-10 3.21126e-08)
(0.000790095 1.28913e-08 4.42735e-08)
(0.000788649 2.82971e-08 5.02976e-08)
(0.000787173 7.50935e-08 7.10835e-08)
(0.000785924 4.84143e-08 8.47281e-08)
(0.000705573 5.89133e-07 -3.51593e-06)
(0.00089043 2.06147e-05 2.19716e-06)
(0.000932353 -1.36194e-05 -4.87461e-06)
(0.000724529 6.74086e-05 6.15275e-07)
(0.000507397 -1.88488e-05 7.38851e-06)
(0.00105614 -0.00122198 2.3104e-06)
(0.000467428 -3.91991e-05 -7.86479e-07)
(0.000856604 -7.92996e-07 -2.11662e-06)
(0.000827911 1.02952e-06 -2.41527e-07)
(0.000837688 1.45451e-06 1.02786e-07)
(0.000838209 1.19663e-06 2.95476e-08)
(0.000839343 8.85118e-07 6.73463e-08)
(0.000839389 5.91266e-07 8.21614e-08)
(0.000838918 3.57795e-07 4.37207e-08)
(0.000837976 1.83276e-07 6.16544e-08)
(0.000836713 1.32037e-07 5.75295e-09)
(0.000835546 1.38971e-07 2.03143e-08)
(0.00083402 -4.46335e-08 5.98373e-08)
(0.000832374 4.70661e-08 5.23863e-08)
(0.000831001 1.10092e-07 3.37782e-08)
(0.000829437 1.24656e-07 1.08947e-07)
(0.000827897 1.63282e-07 7.97171e-08)
(0.000826304 1.50182e-07 4.84927e-08)
(0.00082474 1.12884e-07 5.92388e-08)
(0.000823253 9.81884e-08 4.52222e-08)
(0.000821749 8.16381e-08 1.08194e-07)
(0.000820247 -8.21701e-08 5.19477e-08)
(0.000818753 -1.28874e-07 5.05907e-08)
(0.000817044 -2.94306e-07 2.84912e-08)
(0.000815429 -9.91819e-08 5.66437e-08)
(0.000813962 -7.181e-08 7.47661e-08)
(0.000812288 -3.21578e-08 5.06678e-08)
(0.000810939 5.18205e-09 -4.41366e-09)
(0.000809493 -1.29489e-08 6.88944e-08)
(0.000807795 -2.84048e-08 6.60037e-08)
(0.000806334 -8.86164e-08 6.47563e-08)
(0.00080479 -4.14042e-08 4.54726e-08)
(0.000803203 -2.08613e-08 5.11506e-08)
(0.000801749 -8.75278e-08 2.93701e-08)
(0.000800345 -7.26117e-08 4.57629e-08)
(0.000798923 -2.67254e-08 5.12093e-08)
(0.000797472 -2.57509e-08 5.15279e-08)
(0.000796006 -1.42745e-08 3.95496e-08)
(0.000794458 8.19017e-09 6.78164e-08)
(0.000792954 -4.66453e-09 1.07378e-07)
(0.000791542 -1.44687e-08 3.2119e-08)
(0.000790084 4.98822e-09 8.33116e-08)
(0.000788668 5.55848e-08 5.7011e-08)
(0.00078719 4.89205e-08 4.1216e-08)
(0.000785833 3.38683e-08 8.2671e-08)
(0.0011653 1.08987e-05 6.06469e-07)
(0.00149738 -2.92391e-05 9.02388e-07)
(0.00151317 0.000106812 4.10743e-06)
(0.00125653 -0.000145155 1.07223e-05)
(0.0019155 -9.05007e-05 -8.02973e-06)
(0.00205384 6.11573e-05 0.000149288)
(0.00154719 8.94821e-05 -5.4786e-07)
(0.00142823 -3.10758e-06 3.5546e-07)
(0.00138089 -5.49417e-06 3.45877e-07)
(0.0013968 -5.18162e-06 3.49228e-07)
(0.00139755 -3.98223e-06 3.08286e-07)
(0.00139929 -2.82157e-06 2.8211e-07)
(0.00139911 -1.94382e-06 3.81095e-07)
(0.00139814 -1.31238e-06 3.37718e-07)
(0.00139659 -9.12836e-07 3.16101e-07)
(0.0013947 -5.37421e-07 4.49497e-07)
(0.00139231 -3.54892e-07 3.49851e-07)
(0.00139006 -3.29613e-07 5.27516e-07)
(0.00138796 -2.27232e-07 6.18563e-07)
(0.00138536 2.07758e-08 3.9356e-07)
(0.00138266 6.69765e-08 3.62874e-07)
(0.00138004 -2.14991e-08 2.99735e-07)
(0.00137747 -6.10472e-08 3.37639e-07)
(0.00137468 -6.87942e-08 2.50215e-07)
(0.00137202 8.79967e-08 3.35784e-07)
(0.00136929 1.08513e-08 3.02047e-07)
(0.00136656 2.91316e-08 3.57095e-07)
(0.00136401 -2.92795e-08 3.41571e-07)
(0.00136175 -1.20466e-07 3.90486e-07)
(0.00135938 -1.72905e-07 3.6855e-07)
(0.00135663 -1.38569e-07 3.00546e-07)
(0.00135408 -1.1711e-07 2.95025e-07)
(0.00135138 1.34182e-07 2.92365e-07)
(0.00134887 -2.37815e-08 2.76588e-07)
(0.00134641 -6.54081e-08 3.36701e-07)
(0.00134385 -6.13127e-08 2.56035e-07)
(0.00134143 -1.17211e-07 3.63225e-07)
(0.0013389 -1.98541e-08 3.62733e-07)
(0.00133641 4.66397e-08 2.94268e-07)
(0.00133401 1.29875e-07 3.76295e-07)
(0.0013315 9.81334e-08 3.33281e-07)
(0.00132899 5.79091e-08 3.1503e-07)
(0.00132655 -1.79737e-08 2.83012e-07)
(0.00132411 -9.6401e-08 3.65763e-07)
(0.00132164 -3.44891e-08 3.3897e-07)
(0.00131925 1.13706e-09 3.05599e-07)
(0.00131693 -1.97187e-08 3.30643e-07)
(0.00131448 9.54263e-10 3.92574e-07)
(0.00131194 -2.02418e-08 3.18084e-07)
(0.00130976 -1.35856e-08 3.18787e-07)
(0.00112472 1.25672e-05 -7.56501e-07)
(0.00156469 -3.65042e-05 -6.42431e-07)
(0.00141223 7.69624e-05 1.37311e-06)
(0.00139397 -0.000136081 8.65738e-07)
(0.00187665 0.000270601 -1.84827e-05)
(0.00152106 0.000233251 7.84987e-05)
(0.00128109 -6.25108e-05 -1.59386e-07)
(0.0014043 -3.41076e-05 3.51576e-07)
(0.00137857 -2.31383e-05 3.34461e-07)
(0.00139815 -1.584e-05 3.49383e-07)
(0.00140006 -1.05458e-05 3.5017e-07)
(0.00140153 -6.88356e-06 3.50079e-07)
(0.00140091 -4.40785e-06 3.5015e-07)
(0.00139949 -2.73626e-06 3.49724e-07)
(0.0013976 -1.61047e-06 3.49189e-07)
(0.00139524 -8.56416e-07 2.84257e-07)
(0.00139283 -3.57741e-07 2.80397e-07)
(0.00139022 1.11424e-07 4.13928e-07)
(0.00138777 9.02323e-07 3.23193e-07)
(0.00138538 1.66129e-07 3.48654e-07)
(0.00138237 -6.26361e-08 3.31152e-07)
(0.00137969 -4.06985e-08 3.2684e-07)
(0.00137713 -2.26685e-07 3.96382e-07)
(0.00137476 -9.20544e-08 3.9895e-07)
(0.00137217 -1.02858e-08 2.98773e-07)
(0.00136947 -7.27897e-08 3.52849e-07)
(0.00136701 8.01874e-08 2.7191e-07)
(0.00136437 8.09661e-08 3.4031e-07)
(0.00136154 7.50643e-08 3.28972e-07)
(0.00135901 6.9558e-08 2.93468e-07)
(0.00135668 -2.99741e-08 3.15339e-07)
(0.00135423 -6.12476e-08 3.7475e-07)
(0.00135175 -1.12699e-07 4.15113e-07)
(0.00134889 -1.52629e-07 3.9306e-07)
(0.00134626 -2.63287e-08 3.04469e-07)
(0.00134383 2.56696e-08 3.31702e-07)
(0.00134139 5.72425e-08 3.44365e-07)
(0.00133893 1.11772e-08 3.31888e-07)
(0.00133646 1.15665e-07 3.72156e-07)
(0.00133397 5.37119e-08 4.41312e-07)
(0.00133142 1.56128e-09 3.30359e-07)
(0.00132893 -7.40225e-08 2.92394e-07)
(0.00132647 -8.0491e-08 3.59406e-07)
(0.00132413 -4.75959e-08 3.88719e-07)
(0.00132174 1.43349e-08 3.30419e-07)
(0.00131924 6.87587e-08 3.30611e-07)
(0.0013168 6.99229e-08 3.64017e-07)
(0.00131443 -2.65903e-08 2.97421e-07)
(0.00131198 -5.31137e-08 3.65876e-07)
(0.00130981 -3.44361e-08 3.29117e-07)
(0.00110986 2.08242e-05 1.37405e-06)
(0.00156859 -5.42859e-06 1.34656e-06)
(0.00136033 6.40989e-05 -1.13694e-06)
(0.00145283 -1.0427e-05 5.0707e-06)
(0.0013657 -1.59432e-05 4.36274e-05)
(0.00105299 -0.000159707 -7.93378e-05)
(0.00142283 -6.97982e-05 2.77969e-06)
(0.00144595 -5.99215e-05 3.63278e-07)
(0.00140346 -3.9094e-05 1.46969e-07)
(0.00141268 -2.37852e-05 3.51042e-07)
(0.00140884 -1.48594e-05 3.53013e-07)
(0.00140703 -9.22482e-06 3.53001e-07)
(0.00140433 -5.7132e-06 3.50627e-07)
(0.00140166 -3.53004e-06 3.50003e-07)
(0.00139896 -2.16341e-06 3.4943e-07)
(0.00139628 -1.38491e-06 3.32778e-07)
(0.00139353 -8.03642e-07 4.03832e-07)
(0.00139164 -6.20461e-07 1.44414e-07)
(0.00138803 -5.65703e-07 4.10787e-07)
(0.00138416 -1.22156e-07 3.47483e-07)
(0.0013824 8.92335e-08 3.87919e-07)
(0.00137984 2.86739e-07 3.74626e-07)
(0.0013774 4.76282e-07 3.52428e-07)
(0.00137496 3.1633e-07 2.80733e-07)
(0.00137205 1.37264e-07 3.35488e-07)
(0.00136941 1.81638e-07 3.39956e-07)
(0.00136675 1.38643e-07 6.53859e-07)
(0.00136401 7.244e-08 3.45566e-07)
(0.00136174 1.09867e-07 5.57665e-07)
(0.00135925 2.43988e-07 3.10072e-07)
(0.00135646 1.38416e-07 3.59179e-07)
(0.00135398 1.0933e-07 4.1303e-07)
(0.00135127 -6.71019e-08 4.03214e-07)
(0.00134897 -2.1327e-07 3.18981e-07)
(0.00134663 -1.64147e-07 2.5652e-07)
(0.00134395 -1.37017e-07 3.15414e-07)
(0.00134141 -5.12584e-08 3.88066e-07)
(0.00133897 1.63754e-08 3.38398e-07)
(0.00133646 3.18313e-09 3.0944e-07)
(0.00133387 -8.78286e-09 3.53123e-07)
(0.00133134 3.805e-08 2.85418e-07)
(0.00132889 3.43419e-09 2.65672e-07)
(0.00132658 9.10515e-08 4.34557e-07)
(0.00132422 7.08143e-08 3.52581e-07)
(0.00132179 -5.08537e-08 3.87706e-07)
(0.00131932 -2.42124e-08 3.46013e-07)
(0.00131681 6.58426e-08 3.87272e-07)
(0.00131433 6.83004e-08 3.00456e-07)
(0.00131193 3.75158e-08 3.21298e-07)
(0.00130987 6.50603e-09 3.32611e-07)
(0.00109832 2.38182e-05 -1.07165e-07)
(0.00160216 2.09577e-06 8.83572e-07)
(0.00138082 8.66896e-05 4.13644e-07)
(0.00149964 -1.65017e-05 3.03728e-06)
(0.00161932 0.000213816 -6.68263e-06)
(0.0011008 0.0012282 0.000125136)
(0.00193683 -5.73098e-05 1.76461e-05)
(0.00151467 -5.58623e-05 3.97851e-07)
(0.00142346 -3.88553e-05 3.44157e-07)
(0.00142868 -2.22307e-05 1.36052e-07)
(0.00141841 -1.30984e-05 3.52879e-07)
(0.00141305 -7.77301e-06 3.54133e-07)
(0.00140808 -4.75089e-06 3.51921e-07)
(0.00140396 -2.80954e-06 3.50452e-07)
(0.0014003 -1.63941e-06 3.49918e-07)
(0.00139695 -1.00208e-06 3.50187e-07)
(0.0013938 -6.80619e-07 3.77987e-07)
(0.00139053 -4.5751e-07 3.73603e-07)
(0.0013884 -1.01782e-06 2.26505e-07)
(0.0013862 -1.87613e-07 2.50887e-07)
(0.00138288 1.60749e-07 3.03913e-07)
(0.00138017 1.23418e-07 3.4046e-07)
(0.00137717 2.66349e-07 4.65505e-07)
(0.00137434 6.10523e-08 2.70265e-07)
(0.001372 3.3484e-08 3.99037e-07)
(0.00136947 7.88239e-08 3.88318e-07)
(0.00136687 -4.83263e-08 3.09582e-07)
(0.00136433 2.12693e-08 3.2862e-07)
(0.00136175 1.2003e-07 2.99235e-07)
(0.00135905 3.26594e-08 4.29857e-07)
(0.00135651 1.5364e-07 3.54673e-07)
(0.00135397 8.61771e-08 3.04731e-07)
(0.00135134 1.84476e-08 3.6253e-07)
(0.00134877 1.60861e-07 3.25811e-07)
(0.00134635 8.86522e-09 4.26638e-07)
(0.00134397 -3.1698e-08 2.78011e-07)
(0.00134158 -6.05766e-08 3.6055e-07)
(0.001339 -1.29407e-07 3.17969e-07)
(0.00133643 -2.30516e-07 3.57441e-07)
(0.00133401 -2.64393e-07 2.79442e-07)
(0.00133143 -2.82705e-07 3.1597e-07)
(0.001329 -6.91869e-08 2.96343e-07)
(0.00132655 -1.86003e-07 3.1813e-07)
(0.00132395 8.82479e-09 2.98287e-07)
(0.00132162 -1.01354e-07 3.26763e-07)
(0.00131938 -1.35053e-07 3.63561e-07)
(0.00131692 -1.9287e-07 2.33523e-07)
(0.0013144 -1.13134e-07 2.49812e-07)
(0.00131191 -3.22314e-09 2.95247e-07)
(0.00130976 1.41315e-08 3.29169e-07)
(0.00108595 7.35448e-06 6.95377e-07)
(0.00163292 -7.16479e-06 6.42139e-07)
(0.00135497 5.35168e-05 3.10204e-06)
(0.0015709 -4.14862e-05 7.36996e-06)
(0.0010637 0.000245405 6.4477e-06)
(0.00217502 0.00121787 -0.000259697)
(0.000913385 -0.000199466 -3.74536e-05)
(0.00163206 -1.91415e-05 3.58259e-07)
(0.00144785 -1.12928e-05 3.59983e-07)
(0.0014451 -5.8105e-06 2.84655e-07)
(0.00142704 -3.398e-06 4.24823e-07)
(0.00141754 -1.95852e-06 4.58811e-07)
(0.00141058 -1.11691e-06 2.35029e-07)
(0.00140558 -7.58253e-07 3.49964e-07)
(0.00140124 -5.49351e-07 3.33905e-07)
(0.00139749 -3.62306e-07 4.27371e-07)
(0.00139421 -1.29725e-07 3.67284e-07)
(0.00139122 6.70382e-08 3.48244e-07)
(0.00138837 4.59697e-07 3.76705e-07)
(0.00138563 1.41097e-07 3.3793e-07)
(0.00138279 4.32419e-07 3.47061e-07)
(0.00137997 -1.46384e-08 4.56685e-07)
(0.00137733 -2.12789e-07 3.82033e-07)
(0.00137466 -7.81379e-10 2.99433e-07)
(0.00137207 1.09171e-08 3.82072e-07)
(0.0013693 -8.36491e-08 3.49108e-07)
(0.00136668 -4.76367e-08 4.33933e-07)
(0.00136422 -9.44045e-08 3.37702e-07)
(0.00136175 -6.5028e-08 3.85006e-07)
(0.00135929 -3.98608e-08 3.66424e-07)
(0.00135653 -5.5569e-08 3.01373e-07)
(0.00135381 -3.03054e-08 3.17661e-07)
(0.00135136 2.95549e-08 4.25682e-07)
(0.00134896 8.12735e-08 3.381e-07)
(0.00134639 1.26957e-07 3.59995e-07)
(0.00134386 1.14176e-07 3.3716e-07)
(0.00134129 5.24461e-08 3.02155e-07)
(0.00133876 -1.02985e-07 3.34666e-07)
(0.00133629 -1.11861e-07 3.37089e-07)
(0.0013338 -1.55532e-07 2.98948e-07)
(0.00133159 -1.51197e-07 3.39769e-07)
(0.00132901 -7.11709e-08 4.00209e-07)
(0.00132668 6.25611e-10 2.82795e-07)
(0.00132433 -1.45567e-07 2.98198e-07)
(0.00132161 -1.32158e-08 3.46685e-07)
(0.00131921 -5.05113e-08 3.31311e-07)
(0.00131684 -9.6239e-08 5.40413e-07)
(0.00131456 -1.37216e-07 5.70526e-07)
(0.00131209 -8.97366e-08 3.45583e-07)
(0.00130986 -1.01028e-08 3.70727e-07)
(0.0010843 -4.50463e-06 -1.07516e-06)
(0.00164554 8.38369e-06 8.04697e-07)
(0.00133676 3.2129e-06 -1.50493e-06)
(0.00164517 5.11815e-05 3.04903e-06)
(0.000953478 -0.000194914 5.49273e-05)
(-0.000497523 -0.000899174 8.10442e-05)
(0.00183466 0.000628721 0.000242735)
(0.00159211 4.05851e-05 4.22954e-07)
(0.0014375 2.38643e-05 3.66452e-07)
(0.0014386 1.3484e-05 3.36323e-07)
(0.00142325 7.75096e-06 3.77724e-07)
(0.00141592 4.53782e-06 2.5341e-07)
(0.00140959 2.78746e-06 3.10253e-07)
(0.00140468 1.59297e-06 3.49507e-07)
(0.0014008 8.64845e-07 2.22707e-07)
(0.00139748 4.74007e-07 2.48062e-07)
(0.00139434 2.84735e-07 3.47549e-07)