/*--------------------------------*- C++ -*----------------------------------*\
| =========                 |                                                 |
| \\      /  F ield         | OpenFOAM: The Open Source CFD Toolbox           |
|  \\    /   O peration     | Version:  5.0                                   |
|   \\  /    A nd           | Web:      www.OpenFOAM.org                      |
|    \\/     M anipulation  |                                                 |
\*---------------------------------------------------------------------------*/
FoamFile
{
    version     2.0;
    format      ascii;
    class       surfaceVectorField;
    location    "0.2";
    object      Uf;
}
// * * * * * * * * * * * * * * * * * * * * * * * * * * * * * * * * * * * * * //

dimensions      [0 1 -1 0 0 0 0];

internalField   nonuniform List<vector> 
12667
(
(0.000860904 -8.52872e-06 -7.14016e-07)
(0.000684708 6.2788e-06 -3.97777e-06)
(0.000927987 5.41444e-06 -2.63711e-06)
(0.000858773 2.48171e-05 1.63209e-06)
(0.000934123 -1.82109e-05 2.05475e-06)
(0.00120521 -2.53199e-05 1.61024e-06)
(0.000806435 -2.53379e-06 3.91083e-06)
(0.000872503 5.11536e-05 4.5516e-08)
(0.00120225 8.61753e-05 2.99588e-06)
(0.00061147 -8.9632e-05 -3.1695e-06)
(0.000766744 -7.13515e-05 5.79954e-06)
(0.000963657 -0.000109326 1.00323e-05)
(0.000365857 -3.51891e-05 5.30962e-06)
(0.00117433 -0.000144861 -2.10151e-05)
(0.000807029 -0.000184178 1.12592e-05)
(0.000476573 -4.9908e-05 -1.79579e-06)
(0.00109182 -0.000138853 -1.97494e-05)
(0.000969448 -0.000306514 -5.46053e-05)
(0.000579679 -5.39976e-05 -1.14487e-05)
(0.000580674 -0.000153002 -6.51132e-06)
(0.00104008 -0.000103384 -7.20351e-05)
(0.00246198 -2.37494e-05 9.91821e-05)
(0.000503506 3.20168e-07 4.90634e-05)
(0.000566517 2.36348e-05 8.77475e-05)
(0.00081722 -2.38376e-06 0.000163078)
(0.000365186 1.6312e-05 -2.09816e-06)
(0.000509052 2.21056e-05 -3.30123e-06)
(0.000496851 4.16057e-05 -1.07785e-06)
(0.00086793 5.14168e-05 -1.72386e-06)
(0.000359692 3.65105e-05 -2.25553e-06)
(0.000688462 2.63782e-05 -3.12159e-06)
(0.000671086 8.03622e-05 -3.43642e-06)
(0.000836133 1.49216e-06 -1.18435e-06)
(0.000854987 -1.66223e-06 -2.07225e-06)
(0.00114977 3.22531e-06 -1.41308e-06)
(0.000615183 9.75379e-06 -4.17032e-06)
(0.000595868 1.44688e-05 -4.14232e-06)
(0.00104818 2.12214e-05 -4.40538e-06)
(0.00100449 3.19743e-05 -4.36953e-06)
(0.000838423 -2.02961e-07 -7.06569e-08)
(0.000830235 -2.71696e-06 -1.92663e-07)
(0.0011089 -4.81359e-08 1.20156e-07)
(0.000839641 -6.8007e-07 8.33487e-08)
(0.000839855 -2.79527e-06 1.11881e-07)
(0.00112005 -1.10273e-06 1.95777e-07)
(0.000840315 -6.45718e-07 6.97293e-08)
(0.00084007 -2.22198e-06 6.02961e-08)
(0.00111967 -1.11428e-06 1.85176e-07)
(0.000840316 -4.82819e-07 5.44231e-08)
(0.000840734 -1.60876e-06 6.52972e-08)
(0.00112049 -8.70473e-07 1.91911e-07)
(0.000839927 -2.71468e-07 -3.62367e-08)
(0.000840401 -1.08625e-06 4.59882e-08)
(0.00112017 -5.9389e-07 2.01396e-07)
(0.000838566 -1.73448e-07 -3.5925e-08)
(0.000839491 -8.86661e-07 -2.9414e-08)
(0.00111899 -2.5679e-07 2.78891e-07)
(0.000837605 -1.99047e-07 2.61263e-08)
(0.000838265 -5.32586e-07 4.53632e-08)
(0.00111743 -2.98749e-07 1.82477e-07)
(0.000836232 -1.98319e-07 3.40263e-08)
(0.000837054 -2.36345e-07 4.67395e-08)
(0.00111593 -2.82382e-07 1.93806e-07)
(0.000834828 -2.50458e-07 5.50398e-08)
(0.00083559 -2.46084e-07 6.23071e-08)
(0.00111399 -2.62745e-07 1.8417e-07)
(0.000833507 -2.83652e-07 5.83525e-08)
(0.000834134 -2.9002e-07 6.0851e-08)
(0.00111221 -4.11039e-07 1.91626e-07)
(0.000831793 -2.30229e-07 4.1096e-08)
(0.000832747 -6.36728e-07 4.99307e-08)
(0.00111027 -3.33297e-07 2.21209e-07)
(0.000830343 -1.7093e-07 2.47197e-08)
(0.000831203 -2.67176e-08 3.56734e-08)
(0.0011081 -2.3425e-07 1.44509e-07)
(0.000828894 -1.27138e-07 5.442e-08)
(0.000829613 2.9484e-08 4.16776e-08)
(0.00110616 -1.59624e-07 1.36036e-07)
(0.000827379 -7.86758e-08 5.95586e-08)
(0.000828109 1.26603e-07 1.00367e-09)
(0.00110418 -1.32272e-07 1.9646e-07)
(0.000825742 -4.84613e-09 2.63232e-08)
(0.00082657 1.93519e-07 5.61175e-08)
(0.00110206 -5.36195e-08 1.62524e-07)
(0.000824172 -1.33042e-08 3.77002e-08)
(0.000824909 -1.34385e-07 2.1501e-08)
(0.00109991 5.04155e-08 1.87375e-07)
(0.000822567 -8.11153e-08 3.96826e-08)
(0.000823307 1.62988e-07 5.95815e-08)
(0.00109784 -5.58396e-08 1.82376e-07)
(0.000821002 -7.29342e-08 2.99007e-08)
(0.000821783 2.33717e-07 2.84609e-08)
(0.00109569 -1.17045e-07 1.73997e-07)
(0.000819304 -2.92111e-08 4.6581e-08)
(0.000820202 9.6207e-08 4.13037e-08)
(0.0010935 -5.23753e-08 1.83914e-07)
(0.0008177 -1.72876e-08 4.07355e-08)
(0.000818572 -6.33755e-10 5.0079e-08)
(0.00109129 -2.30542e-08 1.81336e-07)
(0.000816351 -2.2637e-08 5.39023e-08)
(0.000817039 -9.98236e-08 4.41122e-08)
(0.00108938 -5.81682e-08 1.86383e-07)
(0.000814803 2.19015e-08 7.25784e-08)
(0.000815584 8.34059e-08 -7.94049e-09)
(0.00108749 -6.53256e-08 1.79109e-07)
(0.000813253 8.18908e-08 6.73374e-08)
(0.000814052 -1.14797e-07 6.54284e-08)
(0.00108535 4.97514e-08 1.81877e-07)
(0.000811794 6.08293e-08 8.37337e-08)
(0.000812477 -1.68707e-07 6.60366e-08)
(0.00108338 9.25919e-08 1.80774e-07)
(0.000810158 4.68358e-09 7.48187e-08)
(0.000810896 1.39029e-07 7.70876e-08)
(0.0010813 4.42086e-08 1.89467e-07)
(0.000808511 -6.33424e-09 4.97345e-08)
(0.000809348 2.08714e-07 1.50051e-07)
(0.00107909 -7.34144e-09 1.67539e-07)
(0.000807059 -4.56489e-09 7.00008e-08)
(0.000807862 -2.57462e-08 5.14594e-08)
(0.00107703 -2.5562e-09 1.78525e-07)
(0.000805662 -1.46434e-08 5.42388e-08)
(0.000806401 -1.15347e-07 6.79787e-08)
(0.00107513 -2.15481e-08 1.68169e-07)
(0.00080423 -1.95929e-08 3.76596e-08)
(0.000804921 -7.56613e-08 3.22086e-08)
(0.00107326 -3.48944e-08 1.66146e-07)
(0.000802723 -3.1842e-08 6.08396e-08)
(0.000803422 8.54228e-08 5.27042e-08)
(0.00107128 -2.24691e-08 1.79055e-07)
(0.000801142 -3.82461e-08 4.98764e-08)
(0.000801922 1.26019e-07 4.87192e-08)
(0.00106922 -3.57827e-08 1.75529e-07)
(0.000799598 -1.80317e-08 4.20307e-08)
(0.000800402 6.84006e-08 1.70502e-08)
(0.00106717 -2.04232e-08 1.79568e-07)
(0.000798201 6.16113e-09 5.13181e-08)
(0.000798919 -3.312e-08 5.06744e-08)
(0.0010652 1.67058e-08 1.76015e-07)
(0.000796725 5.36561e-08 6.97986e-08)
(0.000797491 2.99395e-08 5.93248e-08)
(0.00106328 2.75672e-08 1.71226e-07)
(0.00079526 1.02575e-07 5.99548e-08)
(0.000796021 -6.28567e-08 6.68307e-08)
(0.00106132 1.05733e-07 1.77337e-07)
(0.000793847 8.88377e-08 4.2e-08)
(0.000794523 -1.14496e-07 2.75419e-08)
(0.00105939 1.19144e-07 1.77096e-07)
(0.000792412 2.79344e-08 -6.27171e-09)
(0.000793073 -5.84062e-08 5.01092e-08)
(0.00105747 7.93425e-08 1.89519e-07)
(0.000790901 -7.08835e-09 -7.44347e-09)
(0.000791637 1.13615e-07 -7.11102e-09)
(0.00105552 -1.13361e-08 1.79717e-07)
(0.000789397 2.06483e-08 4.55458e-08)
(0.000790179 7.64205e-08 4.86009e-08)
(0.00105356 -5.12413e-09 1.75721e-07)
(0.000787977 3.71081e-08 4.93837e-08)
(0.000788712 9.31532e-10 5.55543e-08)
(0.00105159 5.06858e-08 1.72779e-07)
(0.00078659 2.43708e-08 7.02682e-08)
(0.000787259 -9.45933e-09 5.31864e-08)
(0.00104965 2.95979e-08 1.77965e-07)
(0.000786021 -4.92611e-08 8.32887e-08)
(0.00104801 1.91896e-08 1.7609e-07)
(0.000879414 -6.93996e-06 -1.21101e-06)
(0.000669553 6.13236e-06 -3.80165e-06)
(0.000901406 8.7405e-06 -3.82665e-06)
(0.000867237 6.65089e-07 4.68844e-07)
(0.000944578 -1.9078e-05 2.07247e-06)
(0.00126293 -3.09608e-05 1.14079e-06)
(0.000889802 -3.06132e-05 1.93232e-06)
(0.000830266 1.66105e-05 -2.65517e-07)
(0.00113505 4.71283e-05 4.67224e-07)
(0.000691909 1.1818e-05 1.14495e-05)
(0.000813526 -6.95941e-05 6.47789e-06)
(0.0011401 -0.00011313 3.42612e-06)
(0.000535228 -4.38934e-05 4.77237e-06)
(0.00123489 6.30761e-05 7.50508e-06)
(0.000930405 0.000147821 2.97343e-06)
(0.000427633 3.81015e-05 9.67044e-06)
(0.000505726 -1.45671e-05 1.69168e-05)
(0.000525072 1.14711e-05 9.76693e-06)
(0.00104915 9.86831e-05 1.74753e-05)
(0.00146442 0.000671563 3.55771e-05)
(0.000820772 0.000335782 4.8116e-05)
(0.00142391 0.000257911 4.88641e-05)
(0.000755171 0.000258264 5.0453e-05)
(0.00192521 0.000416516 -2.28788e-05)
(0.000299494 1.92847e-05 -1.97208e-06)
(0.000453808 1.39716e-05 -7.57199e-07)
(0.000448362 -1.12579e-05 -2.79456e-06)
(0.000450791 -2.89033e-05 -1.34626e-06)
(0.000723911 -2.96909e-05 -8.88392e-07)
(0.000269948 -6.85381e-06 -9.75625e-07)
(0.000554254 6.06308e-05 -2.05233e-06)
(0.000489267 -8.74069e-06 6.17792e-07)
(0.000828524 -9.45849e-06 -1.08118e-06)
(0.000856351 -1.9729e-05 -2.05217e-06)
(0.00112948 -1.52933e-05 -1.38143e-06)
(0.00058171 -6.6114e-06 -3.87348e-06)
(0.000601544 -1.56111e-05 -3.94683e-06)
(0.000980442 -1.16165e-05 -4.06763e-06)
(0.00102475 -3.35829e-05 -4.1438e-06)
(0.000836483 -7.2e-06 -1.02243e-08)
(0.000833 -1.40749e-05 -1.76279e-07)
(0.00110458 -1.17246e-05 1.40929e-07)
(0.000839629 -5.1126e-06 8.88453e-08)
(0.000842503 -8.98096e-06 1.11581e-07)
(0.0011192 -8.45269e-06 2.00191e-07)
(0.000840838 -3.46869e-06 5.58623e-08)
(0.000842151 -5.80551e-06 4.52438e-08)
(0.0011203 -5.78115e-06 1.8765e-07)
(0.000840853 -2.30158e-06 5.68685e-08)
(0.00084221 -3.69145e-06 5.64793e-08)
(0.00112132 -3.84404e-06 1.87518e-07)
(0.000840204 -1.5557e-06 5.28354e-08)
(0.000841344 -2.35356e-06 5.28309e-08)
(0.00112078 -2.52528e-06 1.87172e-07)
(0.000839086 -1.00161e-06 5.185e-08)
(0.000840191 -1.51294e-06 5.21704e-08)
(0.00111958 -1.74124e-06 1.86428e-07)
(0.000837743 -5.5759e-07 6.59759e-08)
(0.000838825 -8.83633e-07 5.24201e-08)
(0.00111792 -9.81191e-07 1.865e-07)
(0.000836501 -2.64907e-07 7.50153e-08)
(0.000837422 -6.51872e-07 7.70664e-08)
(0.00111618 -5.25003e-07 1.80635e-07)
(0.000834821 1.5388e-08 6.81187e-08)
(0.000835941 -1.29264e-07 6.33606e-08)
(0.00111421 -1.71413e-07 1.82802e-07)
(0.000833427 2.21077e-07 5.24327e-08)
(0.00083439 -7.31198e-07 6.73556e-08)
(0.00111213 2.50886e-07 1.97488e-07)
(0.000832143 1.6978e-07 4.45127e-08)
(0.000832683 -5.5685e-07 5.10577e-08)
(0.00111041 4.39299e-07 1.51902e-07)
(0.000830463 3.13378e-08 5.26294e-08)
(0.000831029 1.07373e-07 5.10313e-08)
(0.00110846 1.07502e-07 1.82394e-07)
(0.000828809 1.53783e-09 -1.17258e-08)
(0.000829576 1.09295e-07 5.24667e-08)
(0.00110611 7.23683e-09 1.83996e-07)
(0.000827355 -4.88434e-08 -2.45502e-09)
(0.000828046 -1.2006e-07 -2.14912e-08)
(0.00110406 9.51631e-09 1.89672e-07)
(0.000825768 -4.68487e-08 5.13063e-08)
(0.000826573 1.0569e-07 6.19905e-08)
(0.00110207 -1.27896e-07 1.90333e-07)
(0.000823955 1.86767e-08 4.33702e-08)
(0.000824991 1.45647e-07 4.72447e-08)
(0.00109983 2.707e-08 1.84441e-07)
(0.000822532 6.02365e-08 4.83696e-08)
(0.000823359 2.74033e-08 5.17549e-08)
(0.00109764 5.45549e-08 1.79614e-07)
(0.000821028 2.30233e-08 3.98598e-08)
(0.000821736 -3.46285e-08 3.80142e-08)
(0.00109569 1.15127e-07 1.9617e-07)
(0.000819449 -2.74368e-08 4.47989e-08)
(0.000820138 1.62366e-07 3.96598e-08)
(0.00109366 -4.15425e-08 1.79429e-07)
(0.000817888 4.44147e-08 5.34576e-08)
(0.000818662 5.68413e-08 4.88471e-08)
(0.00109153 2.65741e-09 1.78726e-07)
(0.000816256 9.06812e-08 -1.77142e-08)
(0.000817097 2.15968e-07 9.26121e-08)
(0.00108937 1.39078e-07 1.66903e-07)
(0.000814861 5.91492e-08 -1.51135e-08)
(0.000815544 -1.68201e-07 -1.27394e-08)
(0.0010874 1.07196e-07 1.86186e-07)
(0.000813291 1.15398e-08 6.41275e-08)
(0.000813992 -6.07143e-08 5.29078e-08)
(0.00108546 3.30465e-08 1.8026e-07)
(0.000811557 -6.3009e-08 5.93871e-08)
(0.000812384 5.27892e-08 5.46644e-08)
(0.00108325 -2.58676e-08 1.83111e-07)
(0.000810044 -1.00005e-07 1.52297e-07)
(0.000810851 2.17319e-08 4.38163e-08)
(0.00108113 -1.57117e-07 1.87617e-07)
(0.000808718 -3.4985e-08 1.51806e-07)
(0.000809429 3.32533e-07 1.65516e-07)
(0.00107917 -1.31126e-07 1.54052e-07)
(0.000807187 3.3256e-08 4.94322e-08)
(0.000807947 -9.32517e-08 8.11542e-08)
(0.00107723 1.3026e-08 1.86074e-07)
(0.000805692 4.66253e-08 4.59596e-08)
(0.000806417 -1.36481e-07 4.86931e-08)
(0.00107524 5.64234e-08 1.79738e-07)
(0.000804078 1.1484e-08 4.72468e-08)
(0.000804877 2.19212e-08 3.33279e-08)
(0.00107318 5.41953e-08 1.82054e-07)
(0.00080265 -4.36605e-08 4.0585e-08)
(0.000803353 5.12898e-08 5.07988e-08)
(0.00107116 -2.30129e-08 1.75023e-07)
(0.000801171 -8.0954e-08 1.59028e-08)
(0.000801875 1.36868e-07 3.34868e-08)
(0.00106922 -6.76521e-08 1.76469e-07)
(0.000799689 -6.52903e-08 2.56835e-08)
(0.000800422 9.14172e-08 1.89271e-08)
(0.00106724 -1.00918e-07 1.76148e-07)
(0.000798199 -2.16176e-08 5.86784e-08)
(0.000798973 -2.99778e-08 5.56687e-08)
(0.00106524 -3.80023e-08 1.78374e-07)
(0.000796836 1.62517e-08 5.63546e-08)
(0.000797539 -1.18661e-07 6.28375e-08)
(0.00106333 -1.40067e-08 1.77954e-07)
(0.000795266 4.27964e-08 3.44299e-08)
(0.000796054 5.20142e-08 4.69845e-08)
(0.00106136 3.92713e-08 1.77912e-07)
(0.000793717 2.36796e-08 3.56443e-08)
(0.000794499 -5.81113e-08 4.5276e-08)
(0.00105932 4.67488e-08 1.80408e-07)
(0.000792315 -1.80629e-08 4.92874e-08)
(0.000793021 -1.14858e-07 5.17005e-08)
(0.00105737 1.41578e-10 1.7535e-07)
(0.000790924 -4.19468e-08 4.89163e-08)
(0.000791607 5.9e-08 5.00294e-08)
(0.00105549 -3.15626e-08 1.74443e-07)
(0.000789476 -3.56741e-08 5.86073e-08)
(0.000790187 -8.82064e-08 4.00792e-08)
(0.00105358 -4.99802e-08 1.87762e-07)
(0.000787984 3.07629e-09 5.93578e-08)
(0.000788761 4.52641e-08 6.64721e-08)
(0.00105163 -3.54833e-08 1.76708e-07)
(0.0007866 3.10838e-08 6.61978e-08)
(0.000787294 -8.15731e-08 5.27317e-08)
(0.00104968 2.78074e-08 1.75526e-07)
(0.000785982 -2.27092e-08 8.05709e-08)
(0.00104798 2.89128e-08 1.77274e-07)
(0.000856205 -2.91702e-06 -5.20123e-07)
(0.000662159 6.20423e-06 -3.86871e-06)
(0.000885384 1.11576e-05 -1.90595e-06)
(0.000826147 4.46118e-06 1.33888e-06)
(0.000951923 -1.14886e-05 2.23223e-06)
(0.00124948 -1.0696e-05 2.07293e-06)
(0.000815935 -8.66464e-06 4.27783e-06)
(0.000813974 3.72634e-05 -1.23055e-07)
(0.00108227 3.8476e-05 -4.85012e-07)
(0.000358168 3.48737e-05 -6.78987e-06)
(0.00082512 -3.46199e-05 5.54084e-06)
(0.00110085 -2.9474e-05 8.38666e-06)
(0.000584594 4.42122e-05 1.03364e-05)
(0.00088825 8.96115e-05 -2.30167e-07)
(0.000923816 -1.95392e-05 7.96594e-06)
(0.000358155 1.44991e-05 -4.75459e-06)
(0.000451552 4.92935e-05 -8.00457e-06)
(0.000402623 0.000111494 -1.41958e-06)
(0.000523508 0.000112155 -1.43591e-05)
(0.000260958 6.41041e-05 -8.2867e-06)
(0.000344942 -1.13533e-05 -4.7639e-06)
(0.000920479 -3.31189e-05 4.8284e-05)
(0.000299317 -3.02593e-05 5.70704e-06)
(0.000401864 -0.000154575 -4.20823e-05)
(0.00037011 -8.82022e-06 9.24014e-06)
(0.00047544 -5.55571e-06 -5.90424e-07)
(0.000464938 -1.92744e-05 -2.23215e-06)
(0.000796498 -3.18834e-05 3.50271e-06)
(0.000302755 -4.11728e-05 1.27282e-05)
(0.000679557 5.25444e-06 2.38609e-05)
(0.000500012 -5.5809e-05 3.2429e-05)
(0.000349903 -3.75776e-05 1.89276e-06)
(0.000621464 -9.23528e-05 5.45351e-06)
(0.00059088 -7.12485e-05 -3.15534e-06)
(0.000322084 -3.62122e-05 -2.04935e-06)
(0.000840182 -2.28617e-05 -1.14789e-06)
(0.000883363 -2.90115e-05 -2.06797e-06)
(0.00115478 -3.714e-05 -1.34105e-06)
(0.000595911 -2.22922e-05 -4.21655e-06)
(0.000614546 -3.69847e-05 -4.6992e-06)
(0.00100232 -4.2413e-05 -4.35359e-06)
(0.00105223 -7.5264e-05 -5.04929e-06)
(0.000844264 -1.47159e-05 -5.45673e-08)
(0.000843125 -2.02867e-05 -3.4567e-07)
(0.00111727 -2.50567e-05 1.20775e-07)
(0.000844461 -8.94154e-06 6.80015e-08)
(0.000849787 -1.14642e-05 6.92593e-08)
(0.00112759 -1.49703e-05 1.98652e-07)
(0.000843893 -5.60911e-06 4.58572e-08)
(0.000846358 -7.11448e-06 3.61827e-08)
(0.00112551 -9.41574e-06 1.85166e-07)
(0.000842749 -3.51498e-06 5.24429e-08)
(0.000844853 -4.34636e-06 5.52545e-08)
(0.00112461 -5.89077e-06 1.88844e-07)
(0.000841418 -2.21829e-06 5.21661e-08)
(0.000842981 -2.72874e-06 5.19883e-08)
(0.00112283 -3.70176e-06 1.86852e-07)
(0.000839948 -1.39312e-06 5.27404e-08)
(0.000841233 -1.72757e-06 5.29944e-08)
(0.00112095 -2.34344e-06 1.85943e-07)
(0.00083847 -8.35967e-07 6.35026e-08)
(0.000839527 -1.08961e-06 5.23288e-08)
(0.00111897 -1.4448e-06 1.86504e-07)
(0.000836936 -4.93955e-07 6.54161e-08)
(0.000837853 -7.53634e-07 6.24189e-08)
(0.00111695 -8.33773e-07 1.85984e-07)
(0.000835541 -2.93371e-07 6.25962e-08)
(0.000836195 -4.37423e-07 3.90455e-08)
(0.00111496 -5.11459e-07 1.88829e-07)
(0.000833579 -1.75674e-07 6.59858e-08)
(0.000834539 -4.06311e-07 5.22235e-08)
(0.00111297 -2.76748e-07 1.93356e-07)
(0.000831574 -1.29347e-07 5.75763e-08)
(0.000832741 -1.06055e-06 4.1085e-08)
(0.00111009 -2.19014e-07 2.53942e-07)
(0.000830131 -7.72982e-08 5.08682e-08)
(0.000831095 -1.09068e-07 3.59278e-08)
(0.00110755 -1.48064e-07 1.8585e-07)
(0.000828831 -3.20087e-08 4.27249e-08)
(0.000829633 -2.60151e-07 5.87194e-08)
(0.00110604 -3.91834e-08 1.84542e-07)
(0.000827231 -4.22996e-08 4.29276e-08)
(0.000828033 -5.36365e-08 4.34204e-08)
(0.00110401 4.24524e-09 1.80715e-07)
(0.000825905 -1.403e-07 5.79335e-08)
(0.00082645 -2.74211e-07 4.84663e-08)
(0.00110208 -2.49915e-08 1.87944e-07)
(0.000824245 -2.05173e-07 5.5628e-08)
(0.00082491 4.6247e-07 8.26706e-08)
(0.00110014 -2.38055e-07 1.68554e-07)
(0.000822724 -2.35238e-07 4.14038e-08)
(0.000823321 -6.74047e-08 3.73122e-08)
(0.00109795 -2.31636e-07 1.85315e-07)
(0.00082069 -2.28797e-07 3.78137e-08)
(0.000821745 4.62389e-07 4.78267e-08)
(0.00109557 -3.33814e-07 1.88984e-07)
(0.00081939 -1.70095e-07 4.37051e-08)
(0.000820212 -2.04311e-07 4.92126e-08)
(0.00109336 -2.09154e-07 1.85295e-07)
(0.00081792 -1.30035e-07 8.79878e-08)
(0.000818712 1.53616e-08 5.33685e-08)
(0.00109151 -1.89196e-07 1.77699e-07)
(0.000816334 -6.5851e-08 9.76201e-08)
(0.000817177 3.63063e-08 1.00555e-07)
(0.00108951 -8.66288e-08 1.97787e-07)
(0.000814709 -6.22488e-08 5.52612e-08)
(0.000815549 -3.80461e-08 3.01609e-08)
(0.00108736 -2.18293e-09 1.79492e-07)
(0.000813106 -9.44077e-08 4.34441e-08)
(0.000813952 7.09057e-10 4.26706e-08)
(0.00108518 -8.21901e-08 1.82613e-07)
(0.000811575 -5.26163e-08 3.90971e-08)
(0.000812437 7.54111e-08 5.243e-08)
(0.00108314 -9.60375e-08 1.79245e-07)
(0.000810254 4.02293e-08 5.69979e-08)
(0.000810967 -9.77678e-08 3.62471e-08)
(0.00108117 -8.12027e-09 1.7067e-07)
(0.000808696 8.50521e-08 9.48907e-08)
(0.000809485 -9.38393e-08 6.83957e-08)
(0.0010793 8.32367e-08 2.13857e-07)
(0.00080716 7.77574e-08 8.04252e-08)
(0.000807938 4.72036e-09 7.66631e-08)
(0.00107727 8.81659e-08 1.74797e-07)
(0.000805636 5.02822e-08 3.60662e-08)
(0.000806383 -1.36857e-07 1.93736e-08)
(0.00107518 7.75242e-08 1.8084e-07)
(0.00080411 2.84451e-08 3.68745e-08)
(0.000804849 1.53778e-07 3.242e-08)
(0.00107316 3.06508e-08 1.71738e-07)
(0.000802571 1.56657e-08 4.3706e-08)
(0.000803337 4.72399e-08 5.24815e-08)
(0.00107113 3.16345e-08 1.82822e-07)
(0.000801099 1.93862e-08 3.65156e-08)
(0.00080188 4.19408e-07 5.42844e-08)
(0.00106912 -3.31147e-09 1.56302e-07)
(0.000799727 6.49239e-08 4.8901e-08)
(0.000800479 -5.91983e-08 5.79093e-08)
(0.00106721 3.721e-08 1.78698e-07)
(0.000798291 7.34211e-08 5.98257e-08)
(0.000798984 -4.86165e-08 4.72165e-08)
(0.00106531 1.08053e-07 1.75073e-07)
(0.000796827 2.08158e-08 5.34723e-08)
(0.000797473 -2.12283e-07 3.83809e-08)
(0.00106338 5.93533e-08 1.83156e-07)
(0.000795276 -3.05001e-08 5.78311e-08)
(0.00079599 8.58009e-08 9.47919e-08)
(0.00106139 2.89302e-09 1.8204e-07)
(0.000793745 -1.53243e-08 6.13302e-08)
(0.000794518 7.04386e-08 3.88449e-08)
(0.00105934 -4.5404e-08 1.73561e-07)
(0.000792298 2.43115e-08 5.2443e-08)
(0.000793071 -1.41677e-07 5.34477e-08)
(0.00105737 1.71636e-08 1.7731e-07)
(0.000790886 9.41818e-09 4.11953e-08)
(0.000791589 -9.50784e-08 4.12922e-08)
(0.00105546 2.84753e-08 1.83568e-07)
(0.00078947 -1.23388e-08 4.7936e-08)
(0.000790159 3.86975e-08 2.60997e-08)
(0.00105355 -1.39019e-08 1.63652e-07)
(0.000788099 -5.11691e-09 5.98502e-08)
(0.00078877 -1.23708e-08 6.83247e-08)
(0.00105169 -7.19545e-09 1.73095e-07)
(0.000786593 1.29476e-09 6.70963e-08)
(0.000787302 5.65984e-09 5.31394e-08)
(0.00104973 9.34739e-09 1.75009e-07)
(0.00078598 5.73179e-08 8.05567e-08)
(0.00104794 1.2051e-09 1.77754e-07)
(0.000878479 -2.70707e-06 -1.11838e-06)
(0.000653441 3.45266e-06 -3.88993e-06)
(0.00088033 1.36515e-05 -3.57827e-06)
(0.000862802 1.55841e-05 7.71078e-07)
(0.000970759 -1.24287e-05 1.88828e-06)
(0.00128691 -6.58301e-06 1.44263e-06)
(0.000871484 2.90134e-06 1.13808e-06)
(0.00080898 2.8069e-05 -3.30197e-07)
(0.00109912 6.19247e-05 -7.2572e-08)
(0.000643831 3.14568e-05 6.81301e-06)
(0.000871182 -4.43774e-05 4.11852e-06)
(0.00119865 -3.15585e-05 2.66671e-06)
(0.000638987 -4.52072e-05 6.97012e-06)
(0.00109736 9.0661e-05 5.11775e-06)
(0.00101258 -1.7341e-05 3.69753e-06)
(0.000523113 5.69008e-05 1.00926e-05)
(0.000539448 1.03188e-05 5.34929e-06)
(0.000517579 2.67301e-05 8.87515e-06)
(0.000887483 0.00011029 1.08229e-05)
(0.000441295 0.000464622 4.63896e-06)
(0.000406702 9.68371e-05 2.06402e-05)
(0.000237757 -3.58063e-05 1.43846e-06)
(0.000355419 -0.000332923 9.03046e-06)
(0.00038798 0.000260545 6.79294e-05)
(0.000556781 -0.000134678 4.32395e-05)
(0.000388304 -6.19688e-05 8.00909e-06)
(0.000467108 3.48982e-06 1.74016e-05)
(0.000705251 -6.38412e-05 1.47481e-05)
(0.000329671 -2.65119e-05 2.91164e-06)
(0.000859623 -2.22844e-05 -1.26631e-06)
(0.000901649 -2.05293e-05 -1.73097e-06)
(0.00120347 -3.37077e-05 -1.38784e-06)
(0.000650561 -1.91233e-05 -5.26729e-06)
(0.000611391 -4.02816e-06 -4.87103e-06)
(0.00111229 -3.3579e-05 -5.75097e-06)
(0.00102305 -1.27597e-06 -4.718e-06)
(0.000854747 -1.51306e-05 -2.21979e-07)
(0.000852675 -1.4878e-05 -4.3915e-07)
(0.0011321 -2.60395e-05 9.35934e-08)
(0.000850558 -8.92377e-06 3.74513e-08)
(0.000857612 -8.57933e-06 1.76848e-07)
(0.00113893 -1.49421e-05 2.07085e-07)
(0.000847573 -5.5218e-06 4.55738e-08)
(0.000850649 -5.42015e-06 4.02881e-08)
(0.00113176 -9.26163e-06 1.8416e-07)
(0.000845039 -3.39121e-06 5.4801e-08)
(0.00084754 -3.24809e-06 5.75254e-08)
(0.00112854 -5.67879e-06 1.88804e-07)
(0.000842809 -2.08881e-06 5.28163e-08)
(0.000844623 -2.02314e-06 2.92562e-08)
(0.00112525 -3.48626e-06 1.87642e-07)
(0.000840795 -1.29631e-06 5.2583e-08)
(0.000842232 -1.25023e-06 5.24742e-08)
(0.00112243 -2.15116e-06 1.87512e-07)
(0.000838924 -8.28849e-07 5.12419e-08)
(0.000840117 -7.79537e-07 6.44897e-08)
(0.00111983 -1.33031e-06 1.86693e-07)
(0.000837098 -5.77953e-07 3.60558e-08)
(0.00083817 -4.93004e-07 5.49148e-08)
(0.00111736 -8.86767e-07 1.85506e-07)
(0.000835235 -4.30886e-07 2.86686e-08)
(0.000836381 3.86387e-07 4.81139e-08)
(0.00111491 -6.58047e-07 1.50299e-07)
(0.000833699 -3.8373e-07 2.73263e-08)
(0.0008346 -2.63606e-07 4.1197e-08)
(0.0011125 -5.02392e-07 1.68866e-07)
(0.000832157 -2.62863e-07 1.94381e-08)
(0.000832894 -4.43427e-08 2.57066e-08)
(0.00111058 -5.82058e-07 1.08858e-07)
(0.000830651 -8.87133e-08 4.37717e-08)
(0.000831314 -2.11236e-07 2.88683e-08)
(0.00110869 -1.68419e-07 1.83504e-07)
(0.00082885 -6.40121e-08 5.94198e-08)
(0.000829664 1.89654e-08 5.78393e-08)
(0.0011063 -4.59006e-08 1.83122e-07)
(0.000827202 -4.64721e-08 4.89575e-08)
(0.000828054 -1.41718e-08 6.21875e-08)
(0.00110408 -7.61918e-08 1.86842e-07)
(0.000825474 -9.28285e-08 7.31924e-08)
(0.000826392 -4.1385e-08 4.03448e-08)
(0.00110177 4.41164e-09 1.80202e-07)
(0.000824003 -1.89077e-07 6.43692e-08)
(0.00082479 1.57591e-07 8.52051e-08)
(0.00109957 -2.0303e-07 1.95365e-07)
(0.00082233 -2.47715e-07 4.37318e-08)
(0.000823248 5.16582e-08 5.29369e-08)
(0.00109752 -2.57668e-07 1.83627e-07)
(0.000821238 -2.01641e-07 5.92251e-08)
(0.000821803 -1.10409e-08 6.6036e-08)
(0.00109571 -3.49655e-07 1.74542e-07)
(0.000819536 -9.98823e-08 5.88746e-08)
(0.000820339 1.34662e-07 9.22283e-08)
(0.00109384 -1.37064e-07 1.71099e-07)
(0.000818008 -1.22116e-07 6.59209e-08)
(0.000818685 1.02541e-07 4.28902e-08)
(0.00109168 -9.73582e-08 1.73714e-07)
(0.000816382 -1.70593e-07 3.31181e-08)
(0.000817117 2.33025e-07 7.47033e-08)
(0.0010896 -1.82255e-07 1.74796e-07)
(0.00081478 -1.47838e-07 1.75664e-08)
(0.000815577 6.57372e-08 1.61738e-08)
(0.0010874 -2.07423e-07 1.79336e-07)
(0.000813253 -8.73759e-08 5.16534e-08)
(0.000814027 6.23265e-09 5.56531e-08)
(0.00108534 -1.06949e-07 1.79901e-07)
(0.000811791 -8.72985e-09 4.95851e-08)
(0.000812535 -6.51205e-09 5.62298e-08)
(0.00108334 -5.06885e-08 1.80469e-07)
(0.000810283 3.67976e-08 4.76349e-08)
(0.000811023 -2.50033e-07 2.46312e-08)
(0.00108135 6.14992e-08 1.89669e-07)
(0.000808694 2.91035e-08 5.01655e-08)
(0.000809475 -3.67065e-08 5.21556e-08)
(0.00107929 5.9393e-08 1.82224e-07)
(0.00080717 4.28348e-08 1.56293e-08)
(0.000807955 2.71973e-08 5.01866e-08)
(0.00107722 4.5926e-08 1.7908e-07)
(0.000805579 1.08252e-07 1.57234e-08)
(0.000806464 1.57291e-08 1.90557e-08)
(0.00107516 8.01717e-08 1.75846e-07)
(0.000804068 1.30181e-07 4.80208e-08)
(0.000804876 9.03313e-08 3.61534e-08)
(0.00107312 1.97889e-07 1.84353e-07)
(0.000802606 1.26396e-07 6.30593e-08)
(0.000803332 2.85109e-08 4.92475e-08)
(0.00107112 1.18154e-07 1.76945e-07)
(0.000801257 1.63271e-07 7.56769e-08)
(0.000801926 -6.95918e-08 6.13577e-08)
(0.00106923 1.64153e-07 2.00697e-07)
(0.000799793 1.34446e-07 5.62281e-08)
(0.000800443 -8.92625e-08 6.62417e-08)
(0.00106738 1.86322e-07 1.78306e-07)
(0.000798138 1.25417e-07 2.57745e-08)
(0.000798973 1.85087e-07 4.02767e-08)
(0.00106527 8.51739e-08 1.76696e-07)
(0.000796647 1.14672e-07 7.96831e-08)
(0.000797459 2.09819e-07 3.16597e-08)
(0.0010632 1.86357e-07 1.48346e-07)
(0.000795185 1.03759e-07 7.58229e-08)
(0.000795976 6.58615e-08 9.78127e-08)
(0.00106123 8.09305e-08 1.77896e-07)
(0.000793895 1.20485e-07 3.0958e-08)
(0.000794539 4.27799e-07 -4.42816e-08)
(0.00105934 1.66961e-07 1.35056e-07)
(0.000792336 1.05943e-07 4.23006e-08)
(0.000793052 -4.45624e-08 4.64696e-08)
(0.00105746 1.21153e-07 1.78479e-07)
(0.000790824 1.02763e-07 2.62012e-08)
(0.000791585 9.28029e-08 3.94104e-08)
(0.00105545 1.15683e-07 1.67781e-07)
(0.000789457 1.11413e-07 4.64755e-08)
(0.00079017 -4.49928e-08 3.23783e-08)
(0.00105353 1.03222e-07 1.74489e-07)
(0.000788033 6.45778e-08 6.16185e-08)
(0.000788711 -7.449e-09 3.44055e-08)
(0.00105166 1.32065e-07 1.73432e-07)
(0.000786594 -5.94227e-09 6.65915e-08)
(0.000787214 1.90236e-08 4.73145e-08)
(0.00104969 5.97608e-09 1.74276e-07)
(0.000785988 7.11259e-08 7.6538e-08)
(0.00104796 -1.6998e-08 1.77591e-07)
(0.000864765 -3.48588e-06 -8.85191e-07)
(0.000648886 3.4225e-07 -3.70068e-06)
(0.000864603 4.68975e-06 -2.41186e-06)
(0.000846408 7.11287e-06 7.87738e-07)
(0.000981784 -2.13844e-06 1.47511e-06)
(0.00129873 -7.6121e-06 9.20216e-07)
(0.000836903 -6.97116e-06 2.64877e-06)
(0.000805205 1.4857e-05 -7.15816e-07)
(0.00107089 3.78561e-05 1.71933e-06)
(0.000409701 6.29651e-05 2.14086e-06)
(0.000944369 -1.30362e-05 3.75055e-06)
(0.00120012 -3.88995e-05 7.70949e-06)
(0.000644515 0.000124488 1.13542e-05)
(0.000714759 0.000121708 3.5526e-06)
(0.0011142 0.000211491 1.27486e-05)
(0.000372516 5.22651e-05 4.77412e-06)
(0.000299456 5.68812e-05 -7.89787e-07)
(0.000346969 0.00020723 7.46677e-06)
(0.000391801 0.000156899 -1.15173e-06)
(0.000106453 0.000478655 6.0034e-06)
(0.000233466 0.000298356 7.20582e-06)
(4.31048e-05 0.000165197 1.30169e-06)
(6.37758e-05 0.000467401 2.66136e-05)
(0.000390271 0.000708187 1.67943e-05)
(0.00282325 0.000268507 0.00010604)
(0.000364658 -0.000156643 9.1776e-05)
(0.000334376 -4.96711e-05 -0.000249409)
(0.000337986 -0.000100665 0.000197311)
(0.000397473 -8.37023e-05 7.49771e-05)
(0.000873772 -1.552e-05 -9.0423e-07)
(0.000910083 -5.21541e-06 -2.13572e-06)
(0.00121221 -2.61971e-05 -1.84649e-06)
(0.000626754 -2.52925e-05 -2.03109e-06)
(0.0006411 -3.32385e-05 3.03972e-07)
(0.00107237 -5.98557e-05 -2.29321e-06)
(0.0011137 -7.12115e-05 -5.16065e-07)
(0.000862972 -8.77248e-06 -4.05246e-08)
(0.000860504 -2.8852e-06 -4.36864e-07)
(0.0011425 -1.50401e-05 1.47116e-07)
(0.000855763 -4.89664e-06 1.7973e-07)
(0.000862483 -2.41229e-06 2.04896e-07)
(0.00114874 -8.11804e-06 2.41728e-07)
(0.000850777 -2.85779e-06 5.22341e-08)
(0.000853213 -1.22405e-06 2.07227e-08)
(0.00113719 -4.7203e-06 1.86055e-07)
(0.000847021 -1.69056e-06 3.19898e-08)
(0.000849008 -5.22992e-07 3.32712e-08)
(0.00113189 -2.74975e-06 1.81892e-07)
(0.000843979 -1.02501e-06 2.89065e-08)
(0.000845461 -5.93875e-08 4.29023e-08)
(0.00112728 -1.65567e-06 1.73499e-07)
(0.000841507 -6.31714e-07 6.4377e-08)
(0.000842727 -2.16671e-07 5.22876e-08)
(0.00112366 -1.01446e-06 1.8588e-07)
(0.000839355 -3.96917e-07 6.81658e-08)
(0.000840413 -2.17758e-07 6.19186e-08)
(0.00112056 -6.41537e-07 1.92842e-07)
(0.000837405 -2.38263e-07 6.69751e-08)
(0.00083837 -1.21476e-07 4.78236e-08)
(0.0011178 -4.04656e-07 1.89423e-07)
(0.000835778 -1.17103e-07 6.06446e-08)
(0.000836533 -1.26904e-07 6.38299e-08)
(0.00111545 -2.19787e-07 2.22045e-07)
(0.00083382 1.31997e-08 3.95823e-08)
(0.000834763 2.9084e-07 2.60068e-08)
(0.00111307 -8.64589e-08 1.76637e-07)
(0.000831943 1.31752e-07 3.51358e-08)
(0.000833042 2.2838e-07 3.79887e-08)
(0.00111051 1.51215e-07 1.89295e-07)
(0.000830368 1.99306e-07 4.29267e-08)
(0.000831397 2.80804e-07 3.69235e-08)
(0.00110823 2.24278e-07 1.48387e-07)
(0.000828847 1.81924e-07 6.06056e-08)
(0.000829642 -4.0753e-08 3.83556e-08)
(0.00110616 3.1829e-07 1.82352e-07)
(0.000827284 8.26551e-08 5.35818e-08)
(0.00082793 -7.20114e-07 -5.24621e-09)
(0.00110407 1.60239e-07 2.31219e-07)
(0.000825628 7.72308e-08 5.23432e-08)
(0.000826385 5.08321e-08 4.36876e-08)
(0.00110193 9.91132e-09 1.83805e-07)
(0.000824122 1.1884e-07 7.37831e-08)
(0.000824841 -5.74932e-08 7.71949e-08)
(0.00109981 1.53866e-07 1.92093e-07)
(0.00082256 1.52657e-07 7.5237e-08)
(0.00082329 2.08568e-07 7.54891e-08)
(0.00109776 1.52095e-07 1.71357e-07)
(0.000821065 1.32842e-07 9.90309e-08)
(0.000821778 -1.97805e-08 5.22129e-08)
(0.00109572 2.50307e-07 1.77142e-07)
(0.000819467 4.177e-08 7.62595e-08)
(0.000820225 1.78441e-08 1.10337e-07)
(0.00109368 9.76221e-08 1.94005e-07)
(0.000817746 -1.13386e-08 5.16625e-08)
(0.000818618 1.01836e-07 6.02467e-08)
(0.00109146 1.88541e-08 1.96916e-07)
(0.000816321 -4.66145e-08 5.77774e-08)
(0.000817073 4.61993e-08 6.36312e-08)
(0.00108937 -4.42678e-08 1.84091e-07)
(0.000814809 -5.5897e-08 5.42481e-08)
(0.000815566 -9.86247e-09 5.15691e-08)
(0.00108746 -6.20104e-08 1.84046e-07)
(0.000813277 -3.03072e-08 6.02293e-08)
(0.00081406 3.92577e-08 6.38424e-08)
(0.00108538 -6.28797e-08 1.7838e-07)
(0.000811834 -4.80303e-08 3.12857e-08)
(0.000812513 -8.78929e-08 4.18389e-08)
(0.00108335 -1.05194e-08 1.78737e-07)