/*--------------------------------*- C++ -*----------------------------------*\
| =========                 |                                                 |
| \\      /  F ield         | OpenFOAM: The Open Source CFD Toolbox           |
|  \\    /   O peration     | Version:  5.0                                   |
|   \\  /    A nd           | Web:      www.OpenFOAM.org                      |
|    \\/     M anipulation  |                                                 |
\*---------------------------------------------------------------------------*/
FoamFile
{
    version     2.0;
    format      ascii;
    class       surfaceVectorField;
    location    "0.2";
    object      Uf_0;
}
// * * * * * * * * * * * * * * * * * * * * * * * * * * * * * * * * * * * * * //

dimensions      [0 1 -1 0 0 0 0];

internalField   nonuniform List<vector> 
12667
(
(0.000860694 -6.17035e-06 -7.29253e-07)
(0.000684871 8.94518e-06 -3.94464e-06)
(0.000928565 7.72177e-06 -2.50097e-06)
(0.000855074 2.76717e-05 1.5884e-06)
(0.000931719 -1.56313e-05 1.89383e-06)
(0.00120183 -2.30659e-05 1.42603e-06)
(0.000799682 -4.63383e-07 3.87004e-06)
(0.000869864 5.6098e-05 -2.32019e-07)
(0.00120001 8.95389e-05 3.0096e-06)
(0.000601801 -8.78287e-05 -3.32795e-06)
(0.000757314 -6.68118e-05 5.64865e-06)
(0.000949823 -0.000109198 9.83185e-06)
(0.000356948 -3.02849e-05 5.56412e-06)
(0.00117435 -0.000139602 -2.1225e-05)
(0.000794719 -0.000177569 1.2131e-05)
(0.000466071 -4.44583e-05 -1.67676e-06)
(0.00108598 -0.000133966 -2.02023e-05)
(0.000960562 -0.00029751 -5.48952e-05)
(0.000563412 -5.56562e-05 -8.13091e-06)
(0.000572681 -0.000146957 -6.54343e-06)
(0.00102446 -0.000108457 -6.61446e-05)
(0.00251009 -2.69083e-05 9.71685e-05)
(0.000505625 3.14218e-07 5.15681e-05)
(0.000563529 1.54529e-05 9.01342e-05)
(0.000796191 1.0435e-06 0.00016761)
(0.000361883 1.55818e-05 -2.0597e-06)
(0.000504404 2.0724e-05 -3.25088e-06)
(0.000490924 4.03784e-05 -1.05776e-06)
(0.000859599 4.97833e-05 -1.68236e-06)
(0.000356403 3.6021e-05 -2.21979e-06)
(0.000682678 2.51248e-05 -3.06697e-06)
(0.000665273 7.97585e-05 -3.3935e-06)
(0.000831624 -2.56098e-06 -1.17601e-06)
(0.000849311 -8.23768e-06 -2.05713e-06)
(0.00114232 -2.50124e-06 -1.38645e-06)
(0.000610056 7.05907e-06 -4.11193e-06)
(0.000590272 1.10774e-05 -4.10167e-06)
(0.00103979 1.72346e-05 -4.32939e-06)
(0.000995055 2.66197e-05 -4.3267e-06)
(0.000835668 -3.13657e-06 -6.62621e-08)
(0.000827688 -7.2202e-06 -1.85558e-07)
(0.00110463 -4.36082e-06 1.26512e-07)
(0.000837891 -2.69225e-06 5.31002e-08)
(0.000838422 -5.85439e-06 1.1474e-07)
(0.00111741 -4.11361e-06 1.93239e-07)
(0.000839232 -1.99345e-06 2.11263e-08)
(0.000839229 -4.20274e-06 2.9569e-08)
(0.00111802 -3.16045e-06 1.91905e-07)
(0.000839541 -1.38798e-06 6.22991e-08)
(0.000840205 -2.88248e-06 4.91733e-08)
(0.00111941 -2.23478e-06 1.76124e-07)
(0.000839198 -9.46045e-07 6.79597e-08)
(0.000839968 -1.88412e-06 7.14826e-08)
(0.00111927 -1.53581e-06 1.79909e-07)
(0.000838393 -6.52494e-07 4.22581e-08)
(0.000839254 -1.22668e-06 5.19038e-08)
(0.00111849 -1.03827e-06 1.94485e-07)
(0.000837381 -4.30475e-07 8.70367e-08)
(0.000838226 -6.71553e-07 4.49219e-08)
(0.00111726 -7.26791e-07 1.55765e-07)
(0.00083615 -2.70748e-07 9.64587e-08)
(0.000836957 -1.22265e-06 5.9979e-08)
(0.00111575 -4.28777e-07 2.20365e-07)
(0.000834556 -2.30198e-07 6.55054e-08)
(0.000835503 -2.24848e-07 4.9343e-08)
(0.00111383 -2.88111e-07 1.86949e-07)
(0.000833521 -1.86119e-07 8.08191e-08)
(0.00083408 8.16002e-08 7.16785e-08)
(0.00111204 -2.84343e-07 1.9321e-07)
(0.00083203 -5.0316e-08 6.90401e-08)
(0.000832758 -1.12158e-07 6.47442e-08)
(0.00111038 -1.80182e-07 1.63181e-07)
(0.000830397 4.93356e-08 4.73105e-08)
(0.000831238 1.30479e-07 5.17507e-08)
(0.00110829 2.6665e-08 1.7108e-07)
(0.000828815 3.96319e-08 3.03529e-08)
(0.000829505 1.27073e-07 4.03219e-08)
(0.00110613 6.65521e-08 1.75063e-07)
(0.000827209 -3.38458e-09 3.02994e-08)
(0.000827899 1.84641e-07 3.21041e-08)
(0.00110403 -4.18999e-09 1.8724e-07)
(0.000825626 -1.35831e-08 -2.44542e-10)
(0.000826364 7.19333e-08 6.22428e-08)
(0.00110196 -4.0473e-08 1.68619e-07)
(0.000823985 4.10377e-08 6.31278e-09)
(0.000824839 1.9307e-07 1.97396e-08)
(0.00109974 -3.80287e-08 1.80333e-07)
(0.000822519 5.57343e-08 3.03694e-08)
(0.000823265 -1.55487e-07 5.08979e-08)
(0.00109763 8.86831e-08 1.80577e-07)
(0.000820625 2.1116e-08 3.09449e-08)
(0.00082162 1.94896e-06 1.76123e-08)
(0.00109544 1.64645e-08 7.10768e-08)
(0.000819234 -6.88632e-09 5.65405e-08)
(0.000820048 -1.469e-07 6.0108e-08)
(0.00109324 2.46426e-08 1.79848e-07)
(0.000817602 -8.5523e-08 8.40483e-08)
(0.000818477 -3.41659e-08 5.41885e-08)
(0.00109121 -3.16115e-08 1.84006e-07)
(0.000816498 -1.46401e-07 8.02241e-08)
(0.000816976 1.66527e-07 6.30078e-08)
(0.00108941 -1.28801e-07 2.03413e-07)
(0.000814774 -1.50013e-07 3.8335e-08)
(0.00081554 -2.38761e-07 4.60174e-08)
(0.00108752 -1.64289e-07 1.86492e-07)
(0.00081322 -1.31835e-07 3.00932e-08)
(0.000813997 9.93217e-08 3.1351e-08)
(0.00108531 -1.4146e-07 1.80193e-07)
(0.00081167 -2.31553e-08 2.81461e-08)
(0.000812509 3.96497e-08 5.4475e-08)
(0.00108327 -1.18211e-07 1.85877e-07)
(0.000810088 3.73194e-08 1.4631e-08)
(0.000810972 -2.01594e-07 4.88865e-08)
(0.00108112 1.03622e-07 2.27155e-07)
(0.000808518 -2.10233e-08 2.67415e-08)
(0.000809325 1.47281e-06 3.03259e-08)
(0.00107908 -1.11137e-08 9.90883e-08)
(0.000807057 -4.26709e-08 3.81413e-08)
(0.000807775 -4.13234e-09 4.76209e-08)
(0.00107711 -5.45114e-08 1.73763e-07)
(0.000805576 -6.20054e-08 4.77827e-08)
(0.000806293 1.21023e-07 4.58644e-08)
(0.00107507 -5.15196e-08 1.42992e-07)
(0.000804109 -3.96742e-08 5.66457e-08)
(0.000804848 1.25803e-07 6.43027e-08)
(0.00107314 -9.97541e-08 1.38567e-07)
(0.00080252 3.31514e-08 3.46082e-08)
(0.000803353 -1.06286e-07 4.59438e-08)
(0.00107111 -8.4396e-09 1.86336e-07)
(0.000801139 8.91631e-08 4.3037e-08)
(0.000801858 -1.11659e-07 4.77501e-08)
(0.00106912 5.49931e-08 1.71562e-07)
(0.000799695 1.02953e-07 5.5708e-08)
(0.000800398 -2.98352e-08 9.11178e-08)
(0.00106721 1.22435e-07 1.75627e-07)
(0.000798132 7.17107e-08 4.42154e-08)
(0.00079888 6.34581e-08 4.7524e-08)
(0.00106521 9.45187e-08 1.77617e-07)
(0.000796673 1.30092e-08 1.60385e-08)
(0.000797364 -7.76252e-09 3.72459e-08)
(0.0010632 5.52074e-08 1.75372e-07)
(0.000795205 -5.50075e-08 3.06668e-08)
(0.000795886 1.2437e-07 1.2329e-08)
(0.00106124 -2.22427e-08 1.75731e-07)
(0.000793712 -4.9124e-08 6.39038e-08)
(0.000794465 1.53713e-07 7.93451e-08)
(0.00105928 -8.9961e-08 1.76089e-07)
(0.000792207 -5.09485e-09 4.03591e-08)
(0.000793014 6.34496e-08 5.2608e-08)
(0.0010573 -2.45975e-08 1.76151e-07)
(0.000790868 -1.85144e-09 3.66367e-08)
(0.000791545 -1.31182e-07 3.56101e-08)
(0.0010554 2.82961e-09 1.67816e-07)
(0.000789501 -1.08035e-08 4.29035e-08)
(0.000790122 -8.72538e-08 4.52828e-08)
(0.00105356 -1.39738e-08 1.76009e-07)
(0.0007879 -2.21968e-08 4.00691e-08)
(0.000788671 -8.57783e-09 2.77252e-08)
(0.00105159 -6.21266e-09 1.75723e-07)
(0.00078645 -2.51909e-08 6.2657e-08)
(0.000787164 -1.21265e-09 4.81117e-08)
(0.00104954 -2.56306e-08 1.75163e-07)
(0.000785858 5.50735e-08 8.23701e-08)
(0.00104779 -1.64722e-08 1.7801e-07)
(0.000878673 -3.6178e-06 -1.32349e-06)
(0.000669602 9.75308e-06 -3.80317e-06)
(0.000901313 1.22123e-05 -3.82856e-06)
(0.000865087 5.24215e-06 7.41192e-08)
(0.000943743 -1.4897e-05 1.92728e-06)
(0.00126093 -2.78037e-05 1.1514e-06)
(0.00088604 -2.44928e-05 1.54464e-06)
(0.000829553 2.33817e-05 -7.55033e-07)
(0.00113255 5.32831e-05 4.79985e-07)
(0.000684931 2.11735e-05 1.14921e-05)
(0.000810519 -6.0292e-05 6.26266e-06)
(0.00113274 -0.000107353 3.46215e-06)
(0.000526636 -3.23633e-05 4.2503e-06)
(0.00123025 7.39751e-05 7.81171e-06)
(0.000918598 0.000160742 2.24362e-06)
(0.000417913 4.40582e-05 9.96879e-06)
(0.000493274 -3.70474e-06 1.73479e-05)
(0.000514966 2.56788e-05 9.51125e-06)
(0.00104325 0.000110716 1.73811e-05)
(0.00145761 0.00068211 3.37683e-05)
(0.000808793 0.000348048 4.68542e-05)
(0.0014317 0.000264581 4.8065e-05)
(0.000745435 0.000266872 4.90966e-05)
(0.00193836 0.000424545 -2.44119e-05)
(0.000294316 1.74549e-05 -1.95028e-06)
(0.000446731 1.11466e-05 -7.4354e-07)
(0.000441712 -1.5385e-05 -2.78512e-06)
(0.000443156 -3.41923e-05 -1.25442e-06)
(0.000712013 -3.52966e-05 -8.76141e-07)
(0.000263465 -8.34067e-06 -8.77099e-07)
(0.0005447 5.79223e-05 -2.0875e-06)
(0.000476597 -1.06545e-05 6.16e-07)
(0.000826046 -1.72746e-05 -1.06729e-06)
(0.00085523 -3.35228e-05 -2.18941e-06)
(0.00112325 -2.73849e-05 -1.3234e-06)
(0.000576713 -1.30619e-05 -3.85981e-06)
(0.000595802 -2.52461e-05 -3.87932e-06)
(0.000971238 -2.13728e-05 -4.05345e-06)
(0.00101445 -4.96782e-05 -4.07558e-06)
(0.000835507 -1.16865e-05 -4.65471e-09)
(0.000834621 -2.05628e-05 -1.61389e-07)
(0.00110279 -1.85116e-05 1.48201e-07)
(0.00083922 -7.89705e-06 9.12361e-08)
(0.000843204 -1.27768e-05 1.13455e-07)
(0.00111849 -1.26634e-05 2.01687e-07)
(0.000840657 -5.21213e-06 5.76095e-08)
(0.000842615 -8.06279e-06 4.88756e-08)
(0.00112002 -8.42601e-06 1.87123e-07)
(0.000840744 -3.37694e-06 5.83495e-08)
(0.000842519 -5.08715e-06 5.92833e-08)
(0.0011212 -5.50044e-06 1.88875e-07)
(0.000840134 -2.13583e-06 5.5433e-08)
(0.000841533 -3.2114e-06 5.46985e-08)
(0.00112071 -3.52197e-06 1.88666e-07)
(0.000839105 -1.29236e-06 5.45699e-08)
(0.000840316 -1.98383e-06 5.42086e-08)
(0.00111957 -2.18576e-06 1.86714e-07)
(0.000837888 -7.14752e-07 1.78593e-08)
(0.000838953 -1.1784e-06 5.36092e-08)
(0.00111807 -1.27986e-06 1.8611e-07)
(0.000836343 -3.23093e-07 1.28668e-08)
(0.000837449 -5.55891e-07 1.00755e-08)
(0.00111618 -6.68258e-07 1.33642e-07)
(0.000834886 -1.6715e-09 5.5509e-08)
(0.000835907 -5.76602e-07 4.72689e-08)
(0.00111424 -2.61862e-07 1.96149e-07)
(0.000833391 4.04517e-07 5.56058e-08)
(0.000834588 1.00361e-06 7.5082e-08)
(0.00111218 1.37085e-07 1.11618e-07)
(0.000832091 3.95225e-07 4.7459e-08)
(0.000832746 -9.05267e-07 6.14316e-08)
(0.00111024 7.74383e-07 2.13396e-07)
(0.000830314 6.81257e-08 4.47657e-08)
(0.000830829 3.95413e-07 4.77838e-08)
(0.00110831 1.54987e-07 1.81584e-07)
(0.000828545 -4.44271e-09 4.20757e-08)
(0.000829414 5.47626e-07 5.05113e-08)
(0.00110589 -3.51387e-08 1.70222e-07)
(0.000827036 -5.32758e-08 6.4038e-08)
(0.000827838 4.92183e-08 6.45597e-08)
(0.00110374 -2.09702e-08 1.86515e-07)
(0.000825557 -5.2286e-08 8.22405e-08)
(0.000826365 -1.55089e-07 6.778e-08)
(0.0011017 -1.66014e-07 1.9058e-07)
(0.000824178 2.36537e-08 6.43148e-08)
(0.000824934 -1.01082e-07 5.46127e-08)
(0.00109982 -4.56249e-08 1.86678e-07)
(0.000822374 1.10232e-08 3.81514e-08)
(0.00082325 1.01057e-07 5.12913e-08)
(0.00109773 1.81158e-08 1.85568e-07)
(0.000820985 2.47378e-08 4.6762e-08)
(0.000821638 8.9848e-08 4.04923e-08)
(0.00109557 -4.86416e-08 2.97542e-07)
(0.000819352 7.32266e-08 5.77579e-08)
(0.000820109 -9.60303e-08 7.01666e-08)
(0.00109359 7.70938e-08 1.85188e-07)
(0.00081769 6.97061e-08 3.31452e-08)
(0.000818473 8.58693e-08 5.37342e-08)
(0.00109146 7.67093e-08 1.83142e-07)
(0.000816137 5.62061e-08 2.88064e-08)
(0.00081696 6.40983e-07 1.42435e-07)
(0.00108921 7.10111e-08 1.48802e-07)
(0.000814761 3.6766e-09 3.90379e-08)
(0.000815475 -2.96397e-07 3.45068e-08)
(0.00108722 5.75027e-08 1.70767e-07)
(0.000813219 -4.43379e-08 5.57254e-08)
(0.000813937 1.0764e-07 4.70915e-08)
(0.00108534 -3.40473e-08 1.8095e-07)
(0.000811889 -7.06352e-08 7.52171e-08)
(0.000812476 -1.25945e-07 5.90715e-08)
(0.00108339 -5.59034e-08 1.74726e-07)
(0.000810251 -1.15211e-07 6.45872e-08)
(0.000810916 -5.43271e-07 7.76461e-08)
(0.00108142 -1.01711e-07 2.14593e-07)
(0.000808481 -8.65975e-08 5.11999e-08)
(0.000809361 1.23364e-06 6.04604e-08)
(0.00107912 -1.46171e-07 2.19375e-07)
(0.000807023 -1.55347e-08 5.53445e-08)
(0.000807864 7.80847e-08 7.87465e-09)
(0.001077 -2.98886e-08 1.6893e-07)
(0.000805535 1.4663e-08 6.23788e-08)
(0.00080633 1.20204e-07 5.67603e-08)
(0.00107506 1.40301e-08 1.77603e-07)
(0.000804146 1.75669e-08 5.36065e-08)
(0.000804851 -2.11641e-08 7.68803e-08)
(0.00107312 4.20928e-08 1.79388e-07)
(0.000802638 4.82628e-08 5.90852e-08)
(0.000803391 2.72936e-08 4.74844e-08)
(0.00107116 9.68105e-09 1.70187e-07)
(0.00080114 7.44687e-08 9.58176e-08)
(0.000801891 -1.64415e-07 5.16183e-08)
(0.00106918 1.02015e-07 1.82738e-07)
(0.000799604 3.76686e-08 8.29472e-08)
(0.000800352 -7.47675e-08 8.93251e-08)
(0.00106717 5.71376e-08 1.85809e-07)
(0.0007981 -1.56765e-08 4.05577e-08)
(0.000798813 6.75334e-08 4.60009e-08)
(0.00106513 8.1606e-09 1.79527e-07)
(0.000796541 -5.02617e-08 3.35441e-08)
(0.000797321 7.66227e-08 4.3627e-08)
(0.00106313 -6.00771e-08 1.789e-07)
(0.00079513 -4.96362e-08 6.09868e-08)
(0.000795887 2.46246e-07 4.68271e-08)
(0.00106115 -6.74425e-08 1.63003e-07)
(0.000793816 -2.14753e-08 6.80575e-08)
(0.0007945 -5.93843e-10 7.31327e-08)
(0.0010593 -4.62356e-08 1.74363e-07)
(0.000792311 2.82357e-08 4.78641e-08)
(0.000793076 9.15366e-08 4.40178e-08)
(0.0010574 8.13699e-09 1.7856e-07)
(0.000790804 5.05521e-08 4.42532e-08)
(0.000791573 -6.59334e-08 4.78234e-08)
(0.00105539 6.16535e-08 1.7623e-07)
(0.000789308 9.39028e-09 3.01099e-08)
(0.00079007 1.33064e-07 5.31444e-08)
(0.00105343 5.82381e-08 1.64083e-07)
(0.000787949 -3.89456e-08 3.57616e-08)
(0.000788611 -8.15742e-08 2.35548e-08)
(0.00105154 -2.71928e-08 1.73146e-07)
(0.000786475 -4.35726e-08 6.78144e-08)
(0.000787158 1.02835e-07 4.9838e-08)
(0.00104958 -5.16082e-08 1.70894e-07)
(0.000785913 3.02039e-08 8.631e-08)
(0.00104785 -3.57373e-08 1.76251e-07)
(0.000856244 1.1649e-06 -5.54302e-07)
(0.000662694 9.7999e-06 -3.87457e-06)
(0.000885576 1.49523e-05 -1.90754e-06)
(0.000826738 1.0086e-05 1.09902e-06)
(0.000953022 -7.45827e-06 2.20281e-06)
(0.00124945 -6.09221e-06 2.03691e-06)
(0.000816079 -4.72585e-08 3.96067e-06)
(0.000817016 4.45429e-05 -3.34141e-07)
(0.00108328 4.5519e-05 -4.81451e-07)
(0.00035875 5.08959e-05 -6.32704e-06)
(0.000827809 -2.13156e-05 5.56554e-06)
(0.00110118 -1.87393e-05 7.97933e-06)
(0.000590468 5.91476e-05 1.02758e-05)
(0.000888618 0.000104355 1.21416e-06)
(0.00092418 -4.19682e-06 7.34935e-06)
(0.000351446 5.90893e-05 -4.69134e-06)
(0.000442746 7.36982e-05 -7.70139e-06)
(0.000406224 0.000137796 -1.00649e-06)
(0.000522487 0.000129999 -1.23399e-05)
(0.000227898 8.41873e-05 -8.56951e-06)
(0.000311242 -3.2961e-06 -5.16321e-06)
(0.000872792 -2.69607e-05 4.59596e-05)
(0.000262754 2.52239e-05 5.93408e-06)
(0.000361794 -0.000165896 -4.32888e-05)
(0.000359787 -2.04407e-05 9.045e-06)
(0.00047119 -1.91662e-05 -5.67882e-07)
(0.000465186 -2.69242e-05 -2.36537e-06)
(0.000797139 -3.97422e-05 3.09755e-06)
(0.000289184 -5.08528e-05 1.28861e-05)
(0.000658404 -2.2611e-05 2.34855e-05)
(0.000460189 -7.76265e-05 3.14449e-05)
(0.000353237 -5.68556e-05 2.20809e-06)
(0.00062746 -0.000139592 6.77449e-06)
(0.000592122 -0.000123367 -2.76716e-06)
(0.000323514 -5.52511e-05 -1.90443e-06)
(0.000846009 -2.92788e-05 -1.28417e-06)
(0.000889061 -3.20096e-05 -1.98582e-06)
(0.0011571 -4.76231e-05 -1.507e-06)
(0.000595505 -3.13351e-05 -4.39586e-06)
(0.000631573 -4.24302e-05 -4.63763e-06)
(0.000998679 -5.63082e-05 -4.52795e-06)
(0.00108933 -8.39786e-05 -5.08153e-06)
(0.000846856 -1.87034e-05 -4.33692e-08)
(0.00084779 -2.28905e-05 -1.91597e-07)
(0.00112284 -3.11615e-05 1.32246e-07)
(0.000845993 -1.15362e-05 7.11154e-08)
(0.000852235 -1.38246e-05 1.9956e-08)
(0.00113013 -1.898e-05 1.92561e-07)
(0.000844831 -7.21912e-06 5.0546e-08)
(0.000848056 -8.63765e-06 4.78854e-08)
(0.00112705 -1.18776e-05 1.85274e-07)
(0.00084335 -4.49012e-06 5.56338e-08)
(0.000845958 -5.30732e-06 5.9144e-08)
(0.0011256 -7.38311e-06 1.88479e-07)
(0.000841773 -2.78215e-06 5.34742e-08)
(0.000843684 -3.29486e-06 5.34675e-08)
(0.00112345 -4.57567e-06 1.86463e-07)
(0.000840162 -1.71191e-06 5.32481e-08)
(0.000841664 -2.02072e-06 5.23428e-08)
(0.00112132 -2.82789e-06 1.8659e-07)
(0.000838578 -1.06116e-06 4.58394e-08)
(0.000839773 -1.23219e-06 5.2043e-08)
(0.00111917 -1.73061e-06 1.86298e-07)
(0.000836969 -6.41889e-07 4.44656e-08)
(0.000837978 -8.13116e-07 4.43711e-08)
(0.00111703 -1.10463e-06 2.02727e-07)
(0.000835504 -3.90278e-07 6.68329e-08)
(0.000836224 -6.42753e-07 5.11134e-08)
(0.00111485 -6.31476e-07 1.77193e-07)
(0.000834385 -3.35234e-07 8.09122e-08)
(0.000834659 -1.24983e-06 6.8189e-08)
(0.00111334 -4.70831e-07 2.98304e-07)
(0.000831089 -2.09974e-07 6.17607e-08)
(0.000832904 -2.02761e-06 2.54658e-08)
(0.00111041 -4.5749e-07 4.08602e-07)
(0.000829993 -4.5574e-09 5.35285e-08)
(0.000831086 -1.89581e-07 2.32274e-09)
(0.00110728 -9.6369e-08 1.81557e-07)
(0.000828748 1.28911e-07 7.29908e-08)
(0.000829581 9.78445e-09 4.87087e-08)
(0.00110591 7.53714e-08 1.91357e-07)
(0.000827039 2.66194e-07 6.83007e-08)
(0.00082801 8.88282e-08 6.43043e-08)
(0.00110386 2.41548e-07 1.91708e-07)
(0.000825858 2.72787e-07 4.01565e-08)
(0.000826373 -3.90934e-07 5.7549e-08)
(0.00110193 4.06179e-07 1.65174e-07)
(0.000824074 1.35337e-07 4.15903e-08)
(0.000824762 1.2248e-07 1.09211e-08)
(0.00109997 2.62895e-07 1.85879e-07)
(0.000822383 7.65526e-08 5.36356e-08)
(0.000823176 2.56542e-07 7.25645e-08)
(0.00109763 9.92161e-08 1.82744e-07)
(0.000820819 8.45779e-08 6.38874e-08)
(0.000821647 9.77945e-08 7.09022e-08)
(0.00109551 1.36793e-07 1.82071e-07)
(0.000819253 6.52218e-08 6.61481e-08)
(0.000820084 -3.65305e-08 6.62365e-08)
(0.0010934 1.07924e-07 1.78771e-07)
(0.000817619 9.10046e-08 1.62996e-07)
(0.000818505 1.75267e-07 4.63003e-08)
(0.0010912 6.28359e-08 1.82802e-07)
(0.000816393 1.62058e-07 1.48169e-07)
(0.000817048 -1.35594e-07 1.45827e-07)
(0.00108938 1.19334e-07 2.08128e-07)
(0.000814594 1.64247e-07 4.25563e-08)
(0.000815477 -5.25437e-08 8.12491e-08)
(0.00108739 2.19662e-07 1.86807e-07)
(0.000813185 1.22051e-07 5.04338e-08)
(0.000813884 -4.92464e-09 5.92269e-08)
(0.00108516 1.35778e-07 1.77716e-07)
(0.000811593 4.23346e-08 6.14947e-08)
(0.000812377 -4.85304e-08 4.14362e-08)
(0.00108318 1.10143e-07 1.8072e-07)
(0.00080994 -7.90066e-08 7.35247e-08)
(0.000810765 -1.80278e-08 8.03182e-08)
(0.00108101 -4.67163e-08 1.54379e-07)
(0.000808781 -1.1548e-07 1.71515e-08)
(0.000809316 1.10793e-07 5.49769e-08)
(0.00107917 -1.72492e-07 2.27877e-07)
(0.000807152 -8.74374e-08 9.2752e-09)
(0.000807899 7.06909e-08 1.69787e-08)
(0.00107731 -1.31691e-07 1.90603e-07)
(0.000805625 -5.2817e-08 7.12555e-08)
(0.000806374 1.24598e-07 6.37578e-09)
(0.00107516 -1.06325e-07 1.80667e-07)
(0.0008041 -1.67798e-08 7.07672e-08)
(0.000804896 -5.49762e-08 7.49175e-08)
(0.00107313 -4.06229e-08 1.8351e-07)
(0.000802674 -1.1285e-08 4.00162e-08)
(0.000803398 -1.01858e-07 4.67435e-08)
(0.00107118 6.4057e-09 1.81663e-07)
(0.000801108 -2.32378e-08 4.51142e-08)
(0.000801876 -9.60684e-08 4.31562e-08)
(0.00106918 -7.91382e-09 1.80135e-07)
(0.000799558 -1.26033e-08 5.23922e-08)
(0.000800365 1.2462e-07 3.55351e-08)
(0.0010671 -1.81252e-08 1.69493e-07)
(0.000797997 -2.75489e-09 4.90709e-08)
(0.000798825 1.65469e-07 4.58569e-08)
(0.00106506 2.01601e-08 1.77906e-07)
(0.000796655 3.17051e-08 5.6909e-08)
(0.000797364 -2.72365e-08 2.78712e-08)
(0.0010631 -2.17442e-09 1.72899e-07)
(0.000795212 7.1726e-08 5.8965e-08)
(0.000795937 -2.51266e-07 6.42957e-08)
(0.00106126 8.11345e-08 2.10629e-07)
(0.00079382 1.82243e-08 4.91019e-08)
(0.000794434 -6.35076e-08 4.53527e-08)
(0.00105938 7.15246e-08 1.74805e-07)
(0.000792363 -3.34791e-08 4.3976e-08)
(0.000793012 1.48428e-07 4.6065e-08)
(0.00105744 -4.33365e-08 1.72128e-07)
(0.000790824 -9.00341e-10 5.67129e-08)
(0.000791613 1.10995e-07 5.91511e-08)
(0.00105546 -2.76749e-08 1.71098e-07)
(0.000789333 4.03499e-08 4.65983e-08)
(0.000790122 4.53063e-08 2.38067e-08)
(0.00105344 4.75989e-08 1.86037e-07)
(0.000787844 4.0019e-08 3.76232e-08)
(0.00078861 -4.61701e-08 2.42383e-08)
(0.00105145 5.98259e-08 1.77088e-07)
(0.000786472 1.84308e-08 6.83225e-08)
(0.000787132 -1.59072e-08 4.8744e-08)
(0.00104953 3.30978e-08 1.77853e-07)
(0.00078589 -6.61884e-08 8.64286e-08)
(0.0010479 7.34083e-09 1.75999e-07)
(0.00087991 2.77921e-07 -1.11949e-06)
(0.000654095 5.39554e-06 -3.87635e-06)
(0.000881207 1.65929e-05 -3.58723e-06)
(0.000865886 1.97719e-05 7.70496e-07)
(0.000973341 -1.06581e-05 1.90504e-06)
(0.00128894 -3.36109e-06 1.45555e-06)
(0.000877646 1.00018e-05 1.26878e-06)
(0.00081565 3.14529e-05 -3.29529e-07)
(0.00110431 6.75352e-05 -6.90906e-08)
(0.000650697 3.91522e-05 7.12815e-06)
(0.000879182 -3.67536e-05 4.06524e-06)
(0.00120287 -2.24522e-05 3.07923e-06)
(0.000642863 -3.61997e-05 7.30977e-06)
(0.00110534 9.88e-05 5.8902e-06)
(0.00101698 -8.85174e-06 3.85531e-06)
(0.00053088 6.2244e-05 1.02712e-05)
(0.000548444 1.51725e-05 4.46944e-06)
(0.000521718 2.05873e-05 9.23028e-06)
(0.000895643 0.000117698 1.1417e-05)
(0.000482542 0.000251444 1.03508e-05)
(0.00042921 1.91124e-05 1.8834e-05)
(0.000197736 -0.000177026 8.07146e-06)
(0.000320609 -0.000412302 8.2202e-06)
(0.000367066 0.000134747 6.41848e-05)
(0.000543398 -5.87838e-05 4.57812e-05)
(0.000403544 -3.50346e-05 6.19562e-06)
(0.000461772 1.3098e-05 1.69848e-05)
(0.000707211 -1.65114e-05 1.46261e-05)
(0.000331604 -1.70558e-06 3.06032e-06)
(0.000863232 -2.72663e-05 -8.93835e-07)
(0.000945938 -1.9854e-05 -1.59416e-06)
(0.00121227 -4.36241e-05 -1.2743e-06)
(0.000662682 -2.64033e-05 -5.16559e-06)
(0.000617148 -2.30632e-05 -5.09337e-06)
(0.00113002 -4.91802e-05 -5.60754e-06)
(0.00101893 -4.41822e-05 -5.21051e-06)
(0.000858107 -1.82573e-05 -1.28341e-07)
(0.000859688 -1.74855e-05 -4.81193e-07)
(0.0011384 -3.09997e-05 1.12903e-07)
(0.000853211 -1.06506e-05 -3.28311e-09)
(0.000861813 -1.01575e-05 -5.59749e-08)
(0.00114278 -1.7799e-05 2.14774e-07)
(0.000849362 -6.3276e-06 5.64797e-08)
(0.000853499 -5.86189e-06 2.21766e-08)
(0.00113463 -1.05152e-05 1.86983e-07)
(0.00084622 -3.80419e-06 5.69795e-08)
(0.000849136 -3.49054e-06 2.67287e-08)
(0.0011304 -6.24761e-06 1.91214e-07)
(0.000843548 -2.2988e-06 5.23365e-08)
(0.00084558 -2.02098e-06 -3.3362e-09)
(0.00112644 -3.81823e-06 1.87878e-07)
(0.000841239 -1.35538e-06 5.11379e-08)
(0.000842852 -1.18692e-06 4.96875e-08)
(0.00112316 -2.26059e-06 1.86832e-07)
(0.000839162 -8.09977e-07 5.05772e-08)
(0.00084046 -6.71016e-07 5.88064e-08)
(0.00112024 -1.31914e-06 1.86231e-07)
(0.000837213 -5.29129e-07 5.10168e-08)
(0.000838332 -4.0563e-07 4.86235e-08)
(0.00111756 -8.11513e-07 1.86178e-07)
(0.00083536 -3.78776e-07 5.24639e-08)
(0.000836413 -2.40013e-07 5.1176e-08)
(0.00111504 -5.58936e-07 1.78205e-07)
(0.000833322 -5.00638e-07 1.27563e-08)
(0.000834508 -1.72164e-07 5.18319e-08)
(0.0011124 -3.88886e-07 1.47693e-07)
(0.00083271 -3.97461e-07 -3.39648e-08)
(0.000833035 3.21933e-08 2.7806e-08)
(0.00111071 -8.49477e-07 -4.32609e-08)
(0.000830686 -3.34072e-09 -2.51189e-09)
(0.000831579 2.59133e-07 -9.90748e-10)
(0.00110898 -1.50611e-07 1.90472e-07)
(0.000828884 1.03775e-07 4.00173e-08)
(0.000829715 1.52579e-07 4.04734e-08)
(0.00110631 1.33873e-07 1.92506e-07)
(0.000827358 1.37497e-07 5.35548e-08)
(0.000828052 1.11245e-07 4.93265e-08)
(0.00110415 1.11984e-07 1.77113e-07)
(0.000825263 1.06362e-07 2.83285e-08)
(0.000826334 -9.61653e-09 6.61765e-08)
(0.00110173 2.20409e-07 2.01733e-07)
(0.000823838 1.9777e-08 4.18757e-08)
(0.000824653 -8.16948e-08 1.32109e-08)
(0.00109944 4.96318e-08 1.84322e-07)
(0.000822407 1.64324e-08 8.98316e-08)
(0.000823172 7.58262e-08 7.73533e-08)
(0.00109757 1.74075e-08 1.83445e-07)
(0.000820958 2.56705e-09 7.32528e-08)
(0.00082163 -4.36575e-07 8.1271e-08)
(0.00109558 5.51837e-08 2.09947e-07)
(0.000819295 -5.57434e-10 4.6395e-08)
(0.00082008 -7.15225e-08 8.68023e-08)
(0.0010935 -3.7377e-08 1.93951e-07)
(0.000817947 6.20116e-08 2.91001e-08)
(0.000818583 -5.856e-08 4.6915e-08)
(0.00109148 2.32992e-08 1.80537e-07)
(0.000816189 7.4721e-08 7.89274e-08)
(0.000817064 -8.90336e-08 4.25896e-08)
(0.00108941 1.09374e-07 1.96905e-07)
(0.000814671 1.00019e-07 9.79266e-08)
(0.000815509 -1.41638e-07 1.01453e-07)
(0.00108724 4.16845e-08 1.8544e-07)
(0.000813134 1.21953e-07 5.02349e-08)
(0.000813911 -1.35176e-08 4.19473e-08)
(0.00108521 1.515e-07 1.81753e-07)
(0.000811567 6.3798e-08 6.02474e-08)
(0.000812304 2.01338e-09 4.62876e-08)
(0.00108317 9.03529e-08 1.80385e-07)
(0.000810009 8.24649e-08 6.17784e-08)
(0.000810788 -6.75807e-08 8.14029e-08)
(0.00108107 2.57478e-08 1.86784e-07)
(0.000808537 8.64289e-08 5.4816e-08)
(0.00080932 6.69374e-08 4.68106e-08)
(0.00107901 1.46387e-07 1.78954e-07)
(0.000807081 2.72133e-08 1.40826e-08)
(0.000807825 -1.44597e-08 6.01855e-08)
(0.00107708 2.4891e-08 1.80681e-07)
(0.000805661 2.33928e-09 1.00164e-08)
(0.000806343 2.72681e-09 6.56723e-09)
(0.00107517 -9.09834e-09 1.80134e-07)
(0.000804184 -3.80866e-08 5.09026e-08)
(0.000804846 -1.00907e-07 3.33734e-08)
(0.00107326 -3.47031e-08 1.80138e-07)
(0.000802619 -1.079e-07 4.98846e-08)
(0.000803311 4.11747e-08 4.46255e-08)
(0.0010712 -9.83843e-08 1.74536e-07)
(0.000801116 -1.66007e-07 3.35794e-08)
(0.000801804 -3.36509e-08 5.31942e-08)
(0.00106915 -1.8949e-07 1.74919e-07)
(0.000799664 -1.87347e-07 2.89966e-08)
(0.000800339 1.08086e-07 3.29091e-08)
(0.00106721 -2.23976e-07 1.76275e-07)
(0.000798096 -1.14256e-07 2.46627e-08)
(0.000798917 5.23116e-08 5.28557e-08)
(0.00106515 -2.36921e-07 1.93754e-07)
(0.000796725 -6.56757e-08 3.52466e-08)
(0.000797425 -3.11341e-07 2.1968e-08)
(0.0010632 -5.32573e-08 1.88498e-07)
(0.000795142 -3.34277e-08 5.06893e-08)
(0.000795977 -2.85659e-07 5.33319e-08)
(0.00106124 -1.40022e-07 1.89857e-07)
(0.000793561 -1.60201e-08 4.23156e-08)
(0.000794456 1.69217e-07 3.02818e-08)
(0.00105914 1.8024e-08 1.7051e-07)
(0.000792306 -7.60284e-08 6.12362e-08)
(0.000792937 -1.46863e-07 5.32106e-08)
(0.00105728 -8.03219e-08 1.79279e-07)
(0.000790924 -1.07114e-07 2.62557e-08)
(0.000791575 -1.75779e-08 6.11428e-08)
(0.00105551 -1.13915e-07 1.7905e-07)
(0.000789411 -1.03887e-07 1.4465e-09)
(0.000790126 9.01685e-08 2.32678e-08)
(0.00105354 -1.57165e-07 1.7846e-07)
(0.000787869 -4.35799e-08 3.53517e-08)
(0.000788686 9.58452e-08 4.49309e-08)
(0.00105152 -9.97187e-08 1.74066e-07)
(0.000786435 7.97258e-09 6.68387e-08)
(0.000787196 -1.79106e-08 5.34049e-08)
(0.00104952 -2.02696e-09 1.75003e-07)
(0.00078588 -7.40606e-08 9.01433e-08)
(0.0010478 1.54564e-08 1.76168e-07)
(0.000865795 -4.07566e-06 -8.53743e-07)
(0.000649516 2.06438e-06 -3.7499e-06)
(0.000865022 4.14252e-06 -2.48295e-06)
(0.000851306 6.83645e-06 8.0576e-07)
(0.000984737 -6.11512e-06 1.50583e-06)
(0.00130194 -8.125e-06 9.81208e-07)
(0.000847399 -7.18757e-06 2.46548e-06)
(0.000811925 1.05865e-05 -7.16357e-07)
(0.00107923 3.81427e-05 1.76356e-06)
(0.000426064 7.1808e-05 1.14668e-06)
(0.000952922 -7.4618e-06 3.78581e-06)
(0.00121158 -3.93249e-05 6.87848e-06)
(0.000669928 0.000122689 1.21776e-05)
(0.000734706 0.000131108 3.41507e-06)
(0.00114061 0.000210486 1.48029e-05)
(0.000383144 4.42852e-05 4.30977e-06)
(0.000306305 8.31674e-05 -1.25568e-06)
(0.000377603 0.000225155 7.52807e-06)
(0.000414732 0.000170815 -2.09357e-06)
(5.45161e-05 0.000533787 6.46314e-06)
(0.000220422 0.000337759 8.44513e-06)
(-1.5267e-05 0.000241191 6.48085e-07)
(5.51601e-05 0.000530916 2.81987e-05)
(0.000342085 0.000733378 2.00412e-05)
(-0.000652209 0.000223618 6.10076e-05)
(0.000338503 -0.000163303 -1.33056e-05)
(0.000361385 -0.000119904 0.000124048)
(0.000649707 -0.000168506 -9.49638e-05)
(0.000439497 -7.70446e-05 -2.69319e-05)
(0.000884984 -1.04044e-05 -1.18188e-06)
(0.000970003 -9.85258e-06 -9.29508e-07)
(0.00130703 -1.60795e-05 -6.22737e-07)
(0.000650903 -6.09084e-05 -4.66154e-06)
(0.000695181 -3.64034e-05 -1.11702e-05)
(0.00105713 -0.000139606 -5.47333e-06)
(0.001136 -7.67152e-05 -9.22702e-06)
(0.000871501 -5.85518e-06 -4.08966e-07)
(0.000864702 7.04931e-07 -7.0134e-07)
(0.00115694 -9.54118e-06 -4.36123e-08)
(0.000860533 -3.08301e-06 -3.05407e-08)
(0.000865295 1.0075e-06 7.62121e-08)
(0.00115592 -4.865e-06 2.20742e-07)
(0.000853237 -1.76031e-06 -7.57585e-09)
(0.000855163 1.31957e-06 3.15429e-08)
(0.00114159 -2.82198e-06 1.8049e-07)
(0.000848242 -1.00409e-06 -3.35772e-08)
(0.000850087 8.68036e-07 -2.3687e-08)
(0.00113403 -1.61643e-06 1.77043e-07)
(0.000844787 -6.13474e-07 -6.00249e-09)
(0.000846072 1.78329e-07 -2.57954e-08)
(0.00112847 -9.25284e-07 1.90904e-07)
(0.000842016 -4.24891e-07 5.73531e-08)
(0.00084309 2.38148e-07 4.97642e-08)
(0.00112446 -6.25733e-07 1.85658e-07)
(0.000839563 -2.93046e-07 5.6856e-08)
(0.000840626 4.38854e-07 5.16054e-08)
(0.00112099 -4.52938e-07 1.80839e-07)
(0.000837485 -1.60439e-07 4.8782e-08)
(0.000838498 1.66786e-07 2.47105e-08)
(0.00111799 -2.95915e-07 1.85973e-07)
(0.000835654 -3.9723e-08 5.05439e-08)
(0.000836565 -8.92637e-09 5.17976e-08)
(0.00111538 -1.10517e-07 1.8816e-07)
(0.000833859 1.54288e-07 6.68894e-08)
(0.000834751 4.89271e-08 4.22742e-08)
(0.00111298 3.94674e-08 1.858e-07)
(0.000832237 1.94741e-07 6.07893e-08)
(0.000833085 1.0739e-07 7.2652e-08)
(0.00111071 3.78234e-07 1.81295e-07)
(0.000830527 1.96073e-07 4.19813e-08)
(0.000831581 6.72684e-07 -7.85118e-10)
(0.00110851 1.16872e-07 1.6571e-07)
(0.000828851 1.4821e-07 4.97798e-08)
(0.000829655 2.85299e-07 3.50825e-08)
(0.00110624 3.65992e-07 1.82306e-07)
(0.000827117 -7.90485e-08 6.19429e-08)
(0.000827768 -1.90814e-07 -1.10959e-07)
(0.00110397 -8.94089e-09 2.17747e-07)
(0.000825622 -7.83606e-08 5.10759e-08)
(0.000826335 -6.39004e-08 6.38268e-08)
(0.00110185 -1.83845e-07 1.79857e-07)
(0.00082394 2.25754e-08 4.86681e-08)
(0.000824779 1.59363e-07 2.45291e-08)
(0.00109972 -1.27579e-09 1.75601e-07)
(0.000822407 2.46811e-08 6.87915e-08)
(0.000823175 -2.96204e-08 4.12547e-08)
(0.00109764 2.89268e-08 1.87112e-07)
(0.000820775 4.66472e-09 9.48187e-08)
(0.000821605 2.14622e-07 5.97553e-08)
(0.00109544 -4.06188e-08 1.42943e-07)
(0.000819336 -1.1913e-08 8.73349e-08)
(0.00082006 -2.47968e-07 6.89709e-08)
(0.00109335 -2.03587e-08 1.84234e-07)
(0.000817746 -3.00599e-08 6.04059e-08)
(0.000818561 -1.57717e-07 5.13371e-08)
(0.00109138 -6.25809e-08 1.92244e-07)
(0.000816365 -1.29537e-08 6.50965e-08)
(0.000817086 -7.92871e-08 5.71044e-08)
(0.00108941 -4.7195e-08 1.66381e-07)
(0.00081478 -7.17415e-09 4.54922e-08)
(0.000815516 -1.09401e-07 4.96503e-08)
(0.00108744 -1.81979e-08 1.82779e-07)
(0.000813072 -1.73667e-08 3.79987e-08)
(0.000813899 1.5319e-07 3.70137e-08)
(0.00108522 -3.66945e-08 1.8442e-07)
(0.000811451 1.09167e-08 6.7432e-08)
(0.00081234 9.35138e-08 6.77874e-08)
(0.00108303 -2.36093e-08 1.82291e-07)