/*--------------------------------*- C++ -*----------------------------------*\
| =========                 |                                                 |
| \\      /  F ield         | OpenFOAM: The Open Source CFD Toolbox           |
|  \\    /   O peration     | Version:  5.0                                   |
|   \\  /    A nd           | Web:      www.OpenFOAM.org                      |
|    \\/     M anipulation  |                                                 |
\*---------------------------------------------------------------------------*/
FoamFile
{
    version     2.0;
    format      ascii;
    class       surfaceScalarField;
    location    "2.6";
    object      alphaPhi10;
}
// * * * * * * * * * * * * * * * * * * * * * * * * * * * * * * * * * * * * * //

dimensions      [0 3 -1 0 0 0 0];

internalField   nonuniform List<scalar> 
27952
(
6.3092e-08
-2.12078e-10
1.85988e-07
3.97487e-08
2.55408e-08
3.81383e-08
-1.67246e-09
-1.07361e-09
-1.76273e-09
4.60606e-08
7.20488e-08
5.06592e-08
4.65451e-09
6.22023e-08
6.08164e-08
6.35772e-08
7.18254e-08
9.95991e-08
6.43419e-08
5.91633e-08
6.69595e-08
7.02306e-08
4.15061e-09
4.41049e-09
-3.24944e-08
4.69596e-08
7.41734e-09
-7.95862e-09
4.30581e-08
2.9886e-08
-6.80166e-09
3.42719e-10
-1.38169e-09
9.56187e-09
-2.68167e-12
-3.08575e-18
2.72914e-15
-1.89754e-12
-3.00694e-12
-3.76181e-12
-1.21673e-15
-4.90261e-16
-1.17247e-15
-1.10461e-15
4.79978e-23
-9.39064e-22
-9.89209e-22
5.10114e-20
-6.29036e-20
-2.63389e-19
2.57032e-19
1.87883e-26
1.13893e-24
-1.72082e-25
5.33474e-27
-3.49121e-27
-6.65246e-30
6.47948e-29
-1.87711e-29
-2.30026e-31
1.79317e-32
9.43224e-33
-1.80052e-32
9.34199e-37
9.26791e-37
1.27293e-35
2.54654e-40
2.37937e-40
2.04309e-38
9.39907e-44
5.49428e-44
3.51987e-43
3.4871e-47
1.61153e-47
3.62599e-45
1.2747e-50
2.82476e-51
2.07609e-48
4.64081e-54
-3.18877e-55
8.23297e-51
1.64789e-57
2.84981e-57
-8.99121e-54
5.79358e-61
3.98567e-63
8.13239e-59
2.06593e-64
-1.56993e-65
-4.63871e-60
7.10758e-68
4.11925e-69
5.00668e-64
2.44288e-71
-2.04664e-71
5.65222e-67
6.69181e-75
-1.71821e-75
5.71605e-71
2.47351e-78
2.0668e-78
-4.7012e-75
1.24576e-81
-6.07728e-83
-1.60742e-76
3.2137e-85
-4.79343e-86
-3.71208e-80
9.34542e-88
-2.48743e-89
1.29338e-83
4.11834e-90
-8.90284e-91
2.00592e-85
3.71519e-94
4.27016e-96
4.26219e-89
1.95011e-97
1.54888e-97
5.00271e-93
5.30701e-101
7.54291e-102
-1.43268e-96
1.86103e-103
-2.83459e-105
1.32177e-99
7.38437e-106
-2.80943e-106
9.33812e-102
8.55334e-110
1.02752e-110
6.0842e-105
5.66175e-113
1.32091e-114
-5.54537e-108
9.09508e-116
2.98174e-117
-3.1034e-112
1.38949e-118
1.18713e-119
5.54783e-115
1.1886e-122
-6.30604e-124
1.87949e-118
3.67148e-126
-6.516e-127
1.75404e-126
3.63975e-129
-4.3481e-131
-9.72078e-125
9.47175e-132
-2.07753e-133
1.00395e-127
1.29307e-134
-1.72375e-136
1.51639e-130
2.80698e-137
1.35416e-137
1.73715e-134
3.65368e-141
-1.04505e-142
3.66413e-139
3.52878e-144
-1.85714e-144
2.83318e-140
6.77935e-148
1.6433e-148
1.82089e-143
7.13278e-151
-1.37271e-154
5.01878e-147
7.0968e-153
-1.98073e-155
3.10066e-149
1.40043e-157
2.50388e-158
-3.25142e-09
6.49951e-08
-1.39975e-09
2.69625e-08
4.91077e-08
1.46207e-08
3.60264e-08
6.02611e-08
5.98466e-08
6.24917e-08
6.27631e-08
-3.36513e-08
-2.73195e-08
4.89065e-08
4.10329e-08
4.57793e-08
4.1111e-08
4.35969e-08
3.07574e-08
2.86222e-08
3.65036e-08
4.27022e-08
-2.15767e-08
1.99097e-08
2.29982e-08
5.95643e-08
6.4325e-08
2.13841e-08
2.70059e-09
2.50404e-08
-3.30605e-08
-2.22857e-08
-2.22438e-09
-4.78961e-09
-2.02007e-09
1.06975e-09
6.02808e-09
2.65966e-15
2.59003e-15
1.78158e-08
1.36537e-14
1.78158e-08
8.68244e-22
-1.27137e-18
-2.53364e-23
-3.59826e-19
-3.75625e-19
-3.76479e-19
3.52531e-18
-1.3496e-18
-2.17656e-18
-1.35059e-18
-9.97991e-27
-1.51576e-22
4.15459e-25
9.78021e-28
-6.04466e-26
-7.64999e-29
3.53435e-30
-1.64848e-28
-3.37862e-31
1.46892e-33
-9.99363e-32
-1.51296e-35
1.22548e-37
-3.86819e-34
-4.26098e-37
3.19553e-41
-8.8151e-38
1.55351e-40
1.1698e-44
-1.04154e-41
1.31531e-43
4.40528e-48
-2.57991e-45
-4.02823e-46
1.64498e-51
-8.42271e-49
2.17918e-49
6.09034e-55
-1.10601e-52
1.54002e-52
2.22776e-58
2.71382e-56
-3.26225e-55
7.8806e-62
-6.38638e-60
-2.98718e-59
2.75862e-65
-5.3421e-63
-6.9033e-63
9.93587e-69
-2.36524e-67
-1.77024e-65
4.04027e-72
-4.3754e-70
1.17483e-68
1.55435e-75
5.37262e-74
-3.01567e-71
6.97659e-79
-6.10334e-78
1.18118e-74
4.16359e-82
-2.56874e-81
7.75103e-78
1.3368e-85
-1.64102e-83
-1.75712e-80
5.90066e-89
1.31075e-88
2.23532e-84
5.55477e-92
1.12193e-92
-7.97763e-87
2.36383e-95
1.05076e-93
-7.93393e-91
3.64632e-98
-6.24059e-99
1.04971e-93
6.9865e-101
5.72507e-102
1.18368e-97
9.41173e-105
-2.93358e-103
-1.45034e-100
8.71907e-108
-7.07759e-107
7.19527e-102
2.43768e-111
1.32314e-111
2.00692e-106
2.14099e-114
1.43615e-114
2.52045e-110
1.0297e-117
-1.20898e-117
3.38997e-113
2.18771e-120
2.06571e-122
-8.93231e-121
3.07839e-122
-2.95885e-124
6.94865e-119
2.51619e-126
-1.63241e-127
9.53953e-122
6.90311e-130
-2.21737e-131
-4.83882e-126
4.92485e-133
-1.04226e-133
3.16009e-128
7.67961e-137
-4.77039e-137
8.53013e-132
2.69327e-140
1.02899e-140
4.37387e-139
3.17428e-143
5.63789e-144
1.83592e-137
6.55579e-146
5.23488e-149
6.22981e-141
2.21833e-149
-2.50922e-149
-6.42286e-144
4.00023e-153
-1.46953e-152
-1.64534e-147
1.07611e-153
4.25004e-156
5.95169e-151
1.21659e-157
3.06347e-154
-1.88683e-08
4.99097e-08
-1.21694e-08
-1.52678e-08
-3.81989e-08
5.67103e-08
6.26597e-08
6.18839e-08
7.08714e-08
-4.61048e-09
3.02753e-08
2.72888e-08
6.72319e-09
-1.00482e-09
-1.10348e-08
-1.6807e-10
-6.48e-09
-2.20222e-08
-5.40566e-09
9.11123e-09
2.91125e-10
2.27199e-09
5.79965e-09
-2.14929e-08
-4.20223e-08
6.18214e-08
-5.38125e-09
4.56193e-08
-2.37233e-08
-1.05296e-09
-4.00917e-10
-3.09444e-08
-3.93655e-08
-3.27243e-08
-3.62023e-08
-5.08894e-07
-1.07178e-07
-2.9081e-08
-1.91225e-07
-1.92435e-09
1.24035e-09
2.54323e-09
6.62022e-09
-5.91549e-09
-5.21836e-11
2.05715e-12
1.4427e-09
-6.15201e-11
1.45208e-09
1.50263e-19
-1.35255e-18
-5.74826e-09
-1.292e-18
7.31705e-20
1.88966e-19
2.16166e-19
5.11306e-25
-9.06877e-22
-1.7756e-23
7.38692e-20
7.39717e-20
7.32657e-20
7.3633e-20
1.12097e-25
-1.3336e-25
-1.46943e-26
1.09544e-28
-3.77064e-30
9.97123e-31
2.23185e-32
2.91165e-31
-7.09789e-32
3.01574e-35
5.20262e-34
1.10441e-36
6.95429e-39
1.03069e-37
4.59104e-39
1.6485e-42
1.97466e-41
1.43097e-42
5.93738e-46
4.97997e-45
-1.58767e-46
2.24181e-49
1.16325e-48
6.2467e-49
8.38094e-53
2.38833e-52
4.26186e-51
3.08282e-56
3.94833e-56
-7.72799e-54
1.11149e-59
9.84546e-60
-8.3989e-58
3.91414e-63
3.7301e-63
1.67383e-61
1.33442e-66
7.45107e-67
4.43132e-65
4.33941e-70
-1.63384e-70
6.65012e-67
1.30655e-73
-6.31521e-74
-6.17019e-70
3.58365e-77
8.31006e-77
1.33239e-73
8.4663e-81
-8.84237e-81
-1.34252e-76
-7.00882e-86
6.12739e-84
-2.01625e-79
-1.21539e-87
-5.26699e-87
2.64142e-83
-5.02096e-91
2.20333e-90
-9.74066e-86
-3.05507e-94
1.26658e-94
5.62336e-89
-3.10032e-97
-2.53733e-97
4.53433e-96
4.62322e-100
-9.21199e-99
-3.98437e-99
3.05436e-102
-2.75757e-105
-1.48918e-98
3.1261e-106
-3.99228e-107
-4.86333e-101
8.67324e-110
4.76402e-110
1.08151e-104
3.71712e-113
-3.1959e-113
-3.02686e-109
1.38556e-116
-3.35967e-118
-1.94875e-111
2.04835e-119
-3.08568e-120
-4.27739e-115
1.08492e-121
2.89227e-122
-1.57945e-118
2.86018e-125
4.12886e-124
1.77106e-120
6.21849e-129
-3.52339e-129
3.28988e-124
4.52274e-132
-9.55583e-132
-4.13985e-127
4.38813e-135
-3.1296e-134
7.26531e-130
6.85351e-139
4.81264e-137
3.47425e-134
3.94171e-142
9.30763e-143
4.52506e-136
7.27379e-145
4.71666e-144
5.06343e-140
2.05018e-147
9.44705e-149
-6.7082e-146
3.68666e-151
1.02044e-151
-1.2768e-146
1.50971e-153
-1.8226e-155
8.46147e-150
-3.32184e-157
1.10501e-154
5.13041e-09
9.66945e-09
1.69165e-08
6.38212e-08
6.40454e-08
6.426e-08
6.24267e-08
8.60768e-09
6.80894e-08
-1.23867e-07
3.68341e-09
-1.17446e-08
7.94797e-11
2.86981e-09
-1.84443e-09
5.01606e-09
-2.2047e-08
1.73441e-07
1.77387e-08
1.01609e-09
-3.98617e-08
7.16202e-09
-1.02125e-07
8.27047e-08
-3.83287e-08
2.55733e-09
4.84724e-09
-2.12204e-08
2.79862e-08
1.0861e-08
2.30329e-08
4.22187e-09
-1.23758e-08
-1.63561e-07
2.0317e-07
3.13096e-07
-1.45334e-08
-8.59372e-09
-6.20955e-09
-4.41594e-09
-1.93302e-08
-1.16546e-07
-5.44786e-08
1.66822e-07
2.21787e-09
-1.64188e-08
3.41133e-09
-1.32933e-09
1.27383e-08
-2.95235e-10
-8.6782e-11
2.13429e-10
-9.71344e-12
2.78798e-10
1.91998e-17
4.7215e-19
-1.96558e-08
3.39822e-18
3.38642e-16
-3.6396e-16
3.63732e-16
3.33989e-18
1.71968e-24
-1.17591e-21
-4.77927e-22
2.66844e-19
2.60627e-19
2.50429e-19
2.99028e-19
1.1576e-26
-1.47516e-25
8.57463e-27
2.40528e-27
2.30439e-27
5.54777e-30
2.0764e-30
4.37231e-30
4.19235e-32
6.03054e-35
-1.00167e-33
6.13152e-34
1.4823e-38
5.85681e-39
7.65342e-38
5.32909e-42
-2.83108e-41
4.39967e-41
2.0759e-45
-1.47224e-44
1.31352e-44
8.24753e-49
1.06512e-48
-3.85063e-47
3.27413e-52
1.32036e-51
8.35856e-50
1.28711e-55
9.45628e-55
-1.88085e-52
5.03328e-59
8.13997e-58
5.72315e-59
1.95894e-62
2.04337e-61
3.17777e-59
7.91816e-66
2.61127e-65
6.45006e-63
3.45893e-69
2.22603e-68
-3.29878e-65
1.47797e-72
-2.50179e-71
-7.6272e-69
6.6183e-76
5.18304e-76
-3.7641e-72
1.99009e-79
-5.78902e-80
-2.29494e-75
1.21819e-82
1.16558e-82
-2.36034e-79
1.52286e-85
2.4422e-85
-8.13133e-82
2.88739e-89
-5.55181e-88
3.91628e-85
1.76022e-92
1.28311e-93
-1.24419e-89
5.07112e-95
4.57786e-96
-3.50671e-92
3.46287e-98
-1.92567e-99
-1.84851e-94
4.26771e-102
-2.23944e-101
-3.47642e-97
3.44103e-105
1.80886e-106
1.10459e-100
6.53805e-108
8.96514e-109
6.01623e-104
7.71388e-112
1.88049e-113
-2.50352e-107
4.39107e-115
1.14572e-114
-1.03526e-111
1.35246e-117
-2.19743e-118
-1.45536e-114
7.14747e-120
1.48072e-120
-4.80345e-117
5.57769e-124
5.26483e-124
1.32134e-119
3.649e-127
4.00533e-128
2.03606e-123
7.90566e-130
1.51231e-130
-3.48002e-126
1.10983e-133
-2.95353e-134
-5.2889e-130
1.25978e-136
7.16346e-137
-1.03572e-132
9.67961e-140
7.7067e-141
-7.09661e-136
2.88558e-143
2.49923e-144
6.83228e-139
1.12669e-146
1.2873e-145
-3.28075e-141
5.15077e-150
5.09547e-150
-8.44693e-147
6.74144e-153
-1.44624e-152
1.27328e-150
-4.00166e-155
4.66475e-152
-3.89669e-09
6.85079e-08
6.28824e-08
5.69024e-08
3.70184e-07
-1.19091e-09
-1.36811e-08
-6.13029e-08
-5.53605e-08
-5.63086e-08
-6.01689e-08
3.4749e-09
1.84317e-09
2.40704e-09
-3.16865e-09
-1.17879e-07
-9.64447e-09
-3.28016e-08
-1.92963e-08
2.64206e-08
-1.1857e-07
-1.20326e-07
-1.153e-07
7.62777e-09
2.85633e-08
5.02579e-09
-3.42323e-08
-7.47809e-08
-5.48305e-08
5.58899e-08
4.7005e-08
-5.11626e-08
-1.98623e-09
-1.6237e-08
1.50313e-09
-6.82006e-09
2.1979e-08
-2.66452e-09
-1.3928e-10
8.43952e-11
-6.71804e-11
2.43733e-10
-1.73553e-14
-3.30982e-18
-2.17123e-08
8.10249e-16
1.14062e-13
-8.65353e-14
-8.91002e-15
-9.38553e-17
5.91384e-23
9.4807e-21
-7.14894e-22
5.92849e-18
5.78972e-18
5.76495e-18
6.06057e-18
1.40099e-25
1.5654e-24
-1.93703e-25
1.35797e-26
7.15263e-27
1.24438e-29
5.60425e-29
4.05507e-29
-2.7335e-30
3.41168e-33
6.80564e-34
-3.17794e-32
3.04851e-37
6.05666e-37
3.827e-37
1.05633e-40
1.20663e-40
8.12302e-39
3.98821e-44
3.24348e-44
-7.43819e-43
1.49602e-47
1.28972e-47
1.47231e-45
5.58412e-51
2.31243e-51
-3.55552e-49
2.06724e-54
8.60093e-55
5.21203e-51
7.59067e-58
-2.37214e-58
2.00299e-54
2.78845e-61
1.14909e-61
-2.94311e-59
1.02458e-64
-6.0286e-65
3.05111e-61
3.51361e-68
-1.34358e-69
9.1274e-65
1.23928e-71
-6.92351e-73
-2.21825e-67
5.68054e-75
2.11564e-75
-5.24135e-72
3.94235e-78
8.15872e-78
-1.01181e-73
9.7197e-82
-2.96628e-82
3.23384e-77
1.04207e-84
-4.5432e-86
5.16825e-80
1.51694e-87
2.50736e-89
-2.01954e-83
4.26188e-91
-1.12225e-90
-7.50897e-86
4.47502e-94
-5.63178e-94
5.75535e-92
1.47742e-97
1.78721e-98
-3.14793e-93
3.71896e-100
-6.74186e-101
-4.05353e-96
2.64174e-104
-9.2914e-105
-7.29993e-101
8.79959e-108
9.73866e-108
-5.95491e-104
1.73144e-110
3.03007e-111
-2.11833e-106
5.87556e-113
-3.14791e-114
-1.16021e-108
5.03421e-117
-5.56175e-117
-3.37079e-112
2.73268e-120
9.12308e-122
5.66204e-120
7.18812e-123
2.00459e-124
6.22747e-118
4.30748e-127
-2.16213e-126
1.39045e-122
2.32727e-130
-2.45213e-128
1.13441e-124
3.45883e-133
-9.00263e-132
-3.85364e-128
3.1644e-136
6.11352e-137
-1.42036e-131
3.7679e-139
3.12869e-139
5.42483e-134
4.93337e-142
3.02365e-143
-2.27576e-138
2.95647e-144
2.55607e-145
6.02707e-140
4.01896e-148
2.28063e-148
1.93115e-143
3.92942e-151
9.50305e-152
4.27463e-147
7.64433e-156
-2.16067e-150
-1.6933e-09
4.71863e-08
4.71333e-08
4.52356e-08
4.93713e-08
7.89005e-08
1.94299e-08
9.00562e-08
7.83378e-08
2.14837e-09
-7.77798e-10
3.81807e-09
4.34521e-08
4.21128e-08
4.08479e-08
3.31296e-08
6.40866e-08
3.03561e-08
7.32131e-08
2.26044e-08
5.75654e-08
6.44831e-08
-4.86207e-08
9.07276e-08
3.71714e-08
2.82198e-08
3.8278e-08
3.11017e-08
4.07544e-08
9.06109e-08
-3.23639e-09
-2.0791e-09
3.19358e-08
-2.22062e-08
-2.69517e-08
-2.76154e-08
-2.15043e-08
2.9315e-08
-1.42174e-08
5.54813e-08
5.40743e-08
-9.2429e-09
3.50757e-09
-5.73534e-09
6.80118e-09
2.62124e-09
-6.63181e-09
-1.12497e-09
-1.53373e-10
2.2261e-10
5.21502e-11
4.35566e-11
-1.68839e-13
3.30332e-17
-1.82663e-08
1.5503e-15
-8.50228e-16
3.3238e-13
-3.52896e-13
1.87474e-13
-2.73135e-23
1.89419e-21
-1.8103e-21
5.87298e-18
5.68724e-18
5.69043e-18
5.63711e-18
6.21625e-26
4.23255e-25
1.13183e-26
8.0667e-27
3.71405e-27
2.57719e-29
4.77984e-29
2.00256e-29
5.23489e-30
3.258e-33
1.0793e-32
-1.6677e-31
2.697e-37
1.19289e-36
1.21293e-35
9.15652e-41
2.72347e-40
-7.58999e-39
3.43663e-44
8.07295e-44
-8.15149e-42
1.29275e-47
1.64106e-47
3.48773e-46
4.8547e-51
9.56128e-51
6.20701e-48
1.81833e-54
8.19023e-55
9.69614e-52
6.8959e-58
1.77283e-59
2.82807e-55
2.39279e-61
1.50274e-61
-1.4168e-58
8.47409e-65
1.27001e-65
1.43434e-61
3.12841e-68
-8.20204e-69
3.49784e-64
1.20768e-71
6.98099e-73
1.70211e-67
1.78231e-74
1.55941e-76
-7.8046e-71
1.07137e-76
4.31181e-78
-1.17325e-73
4.41434e-81
1.48058e-82
-5.85902e-77
1.62379e-84
2.8879e-86
-6.03399e-80
5.05607e-87
4.61643e-88
1.01224e-84
2.10001e-89
1.56876e-90
1.96263e-86
3.51702e-93
2.18521e-93
8.61572e-90
1.32858e-96
1.0128e-97
-1.30644e-92
3.17029e-100
6.49002e-102
1.05283e-96
2.23013e-103
1.77886e-104
-1.78246e-98
2.46736e-106
6.79677e-107
-3.98466e-102
3.89797e-110
-1.13199e-110
3.78763e-105
2.80149e-113
-2.70942e-114
-4.41221e-108
1.70702e-116
3.19143e-117
-5.53358e-111
5.39332e-120
-1.2491e-122
-8.8211e-117
8.47641e-123
8.68228e-125
3.72795e-118
2.39214e-125
-6.00362e-127
-7.33996e-121
8.1778e-128
-3.92886e-129
-1.6455e-124
9.95658e-132
5.02458e-133
-2.33252e-127
2.39411e-135
-7.8399e-137
5.92434e-131
1.05623e-138
1.74785e-140
1.63018e-133
5.888e-142
-4.76938e-145
1.53867e-137
1.17938e-145
1.97468e-146
-5.89887e-144
5.05927e-149
3.53476e-150
2.94464e-144
2.30579e-152
2.11215e-153
-1.17245e-146
2.01163e-156
1.1523e-154
-7.56358e-09
5.34822e-08
7.16631e-08
6.04954e-08
1.73149e-08
-1.72641e-08
-2.9842e-07
-3.24697e-09
7.88425e-08
8.19603e-08
8.55398e-08
8.0193e-08
-6.03027e-08
-3.70334e-08
-1.10752e-08
-2.15729e-08
2.48862e-08
8.90619e-08
-5.42375e-08
5.00112e-09
2.2593e-09
3.89124e-08
3.73942e-08
-4.88158e-08
-1.24671e-08
4.52849e-08
2.71698e-08
6.30278e-08
6.00124e-08
2.81157e-08
1.61621e-10
1.50887e-08
-2.72989e-09
-3.35606e-09
-8.83146e-09
-3.24779e-10
-5.78972e-10
6.2719e-10
-1.34991e-10
6.61694e-11
6.29108e-15
-6.37006e-18
-3.4828e-08
-3.4828e-08
1.60091e-17
1.12019e-15
-1.15911e-14
7.97304e-16
1.03719e-25
1.49647e-21
4.77893e-23
2.57815e-19
2.53972e-19
2.69866e-19
2.41941e-19
3.04604e-26
1.69098e-25
-9.37297e-27
2.35015e-27
3.77278e-29
3.93056e-30
1.69317e-30
6.2578e-32
1.25512e-31
5.1023e-35
1.83344e-34
3.25151e-34
1.38407e-38
5.04056e-38
1.89561e-38
4.90603e-42
3.95021e-42
9.1076e-42
1.89684e-45
6.34417e-46
2.02567e-44
7.53557e-49
2.27148e-49
1.3759e-47
3.00032e-52
3.09578e-53
1.3618e-49
1.19041e-55
3.9515e-56
-9.03299e-53
4.77227e-59
6.95801e-60
1.33851e-57
1.92193e-62
1.03551e-63
-1.64644e-59
7.30181e-66
3.1041e-68
9.59005e-63
2.86e-69
2.30699e-69
-9.51527e-66
1.19491e-72
1.49045e-74
-1.88922e-69
5.48936e-76
1.22868e-76
3.05522e-72
1.63719e-79
-5.44559e-81
2.48858e-78
6.88233e-83
-1.50038e-85
-3.96079e-80
8.89159e-86
1.79301e-87
2.94736e-82
1.54284e-88
1.29961e-89
-8.81135e-86
1.38625e-92
-3.71324e-93
-1.65692e-89
4.44637e-96
3.56683e-97
-5.68874e-92
1.74766e-99
8.61832e-102
-1.72138e-95
9.08754e-103
4.60594e-104
5.64705e-101
7.67215e-106
-8.24124e-107
-5.92505e-101
3.5719e-109
-1.06441e-110
-3.48778e-105
4.77826e-112
4.02753e-113
1.48318e-106
3.95583e-115
1.9803e-117
1.28187e-110
1.48146e-117
7.85546e-120
3.24005e-114
4.24614e-121
2.22324e-122
6.62331e-117
2.596e-124
-4.94385e-125
1.34915e-120
7.80365e-128
6.99091e-130
-1.28004e-124
6.08841e-131
1.92204e-133
1.44981e-125
2.27309e-134
6.73435e-136
1.5117e-129
1.05726e-137
4.1653e-139
1.22119e-136
2.61093e-140
5.53065e-143
6.77852e-136
2.10571e-143
1.73256e-146
-5.19665e-139
1.36556e-145
-7.1191e-149
1.59833e-142
6.58736e-150
-6.99829e-153
3.50027e-150
9.12123e-153
1.03698e-154
5.14755e-151
5.50235e-156
1.57606e-151
-3.2459e-08
5.59005e-08
1.49946e-07
-2.65285e-08
7.32077e-08
-1.07552e-08
4.6343e-08
4.56168e-08
2.96138e-08
2.93478e-08
3.44419e-08
-8.12105e-09
6.06349e-08
-1.31991e-08
5.77603e-08
3.50808e-08
-3.23916e-07
2.30626e-08
1.16658e-07
1.19189e-07
1.24495e-07
1.26953e-07
1.17656e-07
1.1677e-07
1.17308e-07
1.15768e-07
5.2243e-09
1.40257e-08
6.43011e-08
-8.62737e-09
6.7416e-08
-1.73859e-08
4.04109e-08
-2.49155e-08
-2.38258e-07
3.87443e-08
3.68774e-09
3.36438e-09
2.44318e-09
1.16343e-10
-1.04389e-08
1.30154e-10
-1.73727e-10
1.46394e-09
-1.28509e-11
1.397e-09
4.61766e-16
3.00897e-18
4.58199e-09
4.58199e-09
4.31171e-18
4.72444e-16
4.87586e-16
4.7198e-16
-8.24001e-25
3.77391e-23
-4.75715e-23
2.48184e-21
2.64556e-21
2.56066e-21
3.1642e-21
1.14836e-25
1.14943e-26
5.21529e-27
2.37847e-28
1.0536e-28
1.57564e-30
6.58757e-32
1.39132e-32
-9.22624e-32
2.36184e-35
3.17881e-34
-9.94293e-37
6.03599e-39
5.76014e-38
-4.54322e-39
1.38984e-42
7.34751e-42
6.19966e-42
4.84922e-46
1.77457e-45
-3.79049e-46
1.7877e-49
6.82211e-49
-7.50312e-48
6.53108e-53
1.33162e-52
-3.56683e-51
2.34062e-56
1.00884e-55
-7.1597e-54
8.18013e-60
4.00214e-60
1.41907e-57
2.75429e-63
6.0945e-63
-2.44796e-60
8.90457e-67
1.09439e-66
-1.47556e-63
2.58348e-70
1.04756e-70
8.66885e-67
5.80047e-74
-1.3047e-74
1.36318e-70
6.93031e-78
1.77769e-79
1.54553e-73
-1.45333e-81
-2.32752e-81
6.16064e-78
-2.83725e-84
2.87401e-84
-2.21824e-80
-3.08981e-87
-8.27865e-88
4.81941e-84
-1.55542e-90
-1.72868e-91
1.14226e-87
-6.5853e-94
4.09392e-96
-4.12398e-89
-2.96722e-97
-6.28102e-98
7.02266e-96
1.3783e-100
-7.66471e-102
1.90285e-96
1.41667e-103
6.99553e-104
-2.9884e-99
6.57082e-108
-2.94732e-107
1.24863e-101
5.70676e-110
-1.86058e-112
4.44226e-105
1.58694e-112
1.6117e-114
7.53835e-108
1.77333e-116
8.80498e-118
-1.69255e-111
2.88106e-119
2.13339e-122
2.74195e-114
2.12557e-122
1.3968e-124
3.91806e-119
1.50055e-125
5.42192e-129
-1.42583e-120
4.57099e-129
-1.17229e-131
-9.27319e-125
1.39842e-131
-2.99769e-133
4.95152e-127
6.97741e-135
-1.39418e-135
1.24493e-130
1.67295e-138
1.05858e-139
-1.18415e-134
3.88813e-142
7.54248e-144
-6.69539e-137
1.24892e-145
4.52758e-147
6.3113e-142
5.26003e-149
-2.71261e-150
-9.61077e-147
1.23994e-152
-2.65649e-152
4.67128e-150
-8.48402e-154
-6.44572e-156
4.34566e-153
-4.49059e-158
-2.94642e-153
3.78177e-08
6.28919e-08
6.0594e-08
5.65429e-08
3.21724e-08
4.4188e-08
-4.76627e-08
1.14327e-08
-9.02184e-08
2.38132e-08
3.1751e-08
2.41909e-08
3.93404e-08
4.21535e-08
-8.66005e-08
1.36795e-07
3.82787e-08
3.65004e-08
4.14404e-08
3.87242e-08
3.5735e-09
-3.36317e-08
-2.60285e-08
5.73695e-08
4.39149e-08
6.55881e-08
5.939e-08
5.93268e-08
5.08588e-08
2.60301e-08
-8.6636e-09
-1.12425e-08
-3.37795e-09
6.76867e-10
2.21907e-08
-1.35665e-10
3.54306e-11
-2.46908e-08
4.8487e-11
-2.46781e-08
9.54838e-22
-2.21396e-20
1.28116e-19
-2.21979e-18
1.10096e-18
-4.55911e-18
5.17684e-18
-8.19178e-19
-9.57402e-19
-1.85861e-18
-9.5402e-19
4.41487e-25
1.67835e-24
-2.23642e-25
3.77074e-28
-1.1441e-27
-2.35694e-28
5.02108e-29
-1.15368e-28
1.31764e-33
5.90226e-33
-2.4042e-31
-1.13244e-33
1.79292e-37
-3.6314e-35
-4.17693e-37
5.36155e-41
-6.36121e-39
-8.47639e-42
2.03535e-44
-1.53224e-42
6.7455e-44
7.81711e-48
-5.21924e-46
2.55281e-46
2.99236e-51
-1.10109e-49
-7.47569e-50
1.13868e-54
-1.53139e-53
2.93343e-53
4.30739e-58
-9.30393e-57
-9.21381e-56
1.61107e-61
-1.87002e-60
-4.45383e-60
5.96942e-65
-4.76696e-64
-2.37512e-62
2.19141e-68
6.7898e-68
-2.92282e-66
7.94048e-72
-3.31953e-72
-1.32101e-68
3.25061e-75
1.4873e-74
2.41288e-72
1.57061e-78
6.30307e-78
-1.01696e-74
4.11311e-82
-7.66337e-82
8.55525e-79
1.33641e-85
2.16466e-85
2.9958e-82
4.45005e-89
1.4371e-88
-8.98809e-85
1.52871e-92
-1.61547e-91
-4.94796e-88
6.21221e-95
-2.07259e-95
4.20067e-91
4.0617e-97
4.87815e-99
-2.21446e-94
3.00268e-101
-2.83712e-101
7.1128e-99
6.17456e-105
-1.44494e-103
-6.75123e-101
5.25794e-108
-7.3768e-108
-2.25619e-104
1.54677e-110
-1.45248e-110
1.49281e-106
2.28419e-114
3.0031e-114
1.24654e-109
1.303e-117
-9.23045e-117
-1.10731e-112
2.42485e-121
-3.62017e-121
9.06835e-117
2.30548e-124
-2.07727e-124
1.22728e-123
9.16622e-127
6.95539e-128
1.44482e-123
1.07938e-129
-4.68336e-131
6.42605e-126
1.25432e-132
-1.10751e-133
7.5196e-129
1.47663e-136
-4.42539e-137
1.29342e-131
3.60738e-140
-8.84478e-141
-9.69298e-139
1.1828e-143
5.03086e-143
5.49387e-141
1.66206e-146
1.49456e-146
-4.98597e-144
9.61342e-149
-3.12428e-149
1.3929e-144
1.09279e-151
-1.18542e-151
3.6275e-149
7.96793e-154
-5.35448e-155
5.79346e-152
-4.8739e-157
4.12839e-155
2.12659e-08
-2.4293e-08
1.53584e-08
1.23662e-08
1.31279e-08
1.26603e-08
1.89039e-08
1.86013e-08
1.69454e-08
-2.71571e-08
6.45717e-08
1.24354e-08
2.26614e-08
-3.71446e-08
3.31121e-08
4.42887e-08
4.28695e-08
5.41602e-08
5.53808e-08
7.31406e-08
6.43957e-08
2.2658e-08
-4.91602e-08
6.55194e-08
5.79126e-08
-5.96036e-09
-2.76844e-08
-8.64515e-08
4.76547e-08
6.27121e-08
-9.89436e-09
3.81611e-09
-4.04126e-09
6.43727e-09
5.09453e-10
-9.07019e-09
8.68952e-12
6.576e-15
1.79728e-08
9.39634e-14
1.7973e-08
-2.6316e-23
2.33759e-21
-1.19549e-19
-3.97011e-19
1.84553e-19
3.12389e-19
-7.26994e-26
-9.68239e-26
5.12624e-27
1.64852e-29
9.35666e-29
8.49838e-32
5.43522e-32
-4.45022e-33
2.59316e-36
1.50676e-35
5.89974e-40
2.19765e-39
2.12575e-43
3.84373e-42
7.80882e-47
8.60843e-45
2.82543e-50
-5.96807e-50
1.0059e-53
7.15883e-52
3.52667e-57
4.12677e-55
1.20753e-60
7.10584e-58
3.88433e-64
-1.44543e-60
1.17838e-67
7.627e-64
3.16122e-71
-2.49916e-68
7.80482e-75
1.18355e-71
1.45222e-78
2.08459e-74
-8.07874e-82
1.52336e-77
-6.40388e-85
2.01305e-80
7.48442e-88
-3.34627e-84
3.26058e-90
3.23703e-86
2.8375e-94
2.38682e-90
2.65287e-97
-3.96963e-94
1.16353e-99
-1.67532e-96
4.04474e-103
2.10686e-99
1.31544e-106
4.7978e-102
4.36581e-110
3.11947e-106
3.21177e-113
2.38176e-108
4.43942e-116
-1.94313e-111
2.92216e-119
-9.56469e-116
1.25733e-121
1.41082e-119
6.70894e-126
4.87347e-127
1.81753e-129
4.90628e-125
1.8125e-132
1.03068e-132
8.40726e-135
-4.56845e-131
1.15838e-138
1.50526e-134
1.837e-141
1.50613e-137
1.37998e-144
4.5413e-140
4.76023e-148
2.32636e-143
2.70251e-151
2.4364e-147
-5.66611e-155
1.39084e-149
4.36024e-154
-4.2563e-10
5.16579e-09
-2.59278e-07
2.36304e-08
-1.67294e-08
1.63295e-08
6.6439e-09
6.467e-09
9.47671e-09
-8.05212e-08
-6.35922e-08
-4.41596e-08
1.19501e-08
-6.17535e-08
-2.27517e-09
6.64738e-08
2.528e-09
4.63109e-08
-2.57226e-08
2.79714e-07
6.37219e-08
5.73515e-08
2.77024e-07
-2.78764e-07
-1.70022e-08
3.76603e-09
-2.08892e-07
6.60375e-09
2.91101e-09
6.05737e-09
2.5962e-09
-2.65234e-08
-1.09478e-09
1.31561e-10
-1.10823e-09
2.81541e-08
-4.12492e-12
-6.08789e-15
7.02e-17
-4.4456e-15
-4.87938e-12
-3.52789e-12
-5.26346e-12
-2.56132e-15
-1.23485e-15
-3.59073e-15
-3.80582e-15
2.50476e-22
6.39191e-21
5.95458e-22
-6.83588e-19
5.61183e-19
-6.90905e-19
3.76386e-19
2.34352e-25
2.91749e-24
1.97727e-25
1.48432e-26
-1.28522e-26
1.39023e-29
4.88766e-28
-3.0916e-28
4.26014e-31
2.269e-30
-4.19134e-32
-5.09495e-33
5.63332e-34
1.31264e-33
5.52331e-36
9.23666e-38
3.67546e-37
-5.49763e-39
5.29163e-41
1.28252e-40
1.06281e-43
3.59229e-44
8.15074e-44
1.45724e-44
2.31902e-47
2.58182e-47
-4.88543e-49
1.47428e-50
1.29556e-50
-1.46851e-51
9.29241e-54
1.17931e-53
2.30564e-54
5.82343e-57
3.34701e-57
-8.88647e-58
3.62015e-60
-3.41767e-61
1.50503e-60
2.22469e-63
8.45546e-64
1.06556e-64
1.35266e-66
7.9233e-67
3.89274e-68
8.10356e-70
-2.69896e-70
2.11834e-70
4.75857e-73
-3.0513e-73
3.53371e-73
2.7157e-76
4.76956e-77
2.38688e-76
1.50085e-79
5.09203e-80
4.85688e-81
7.89424e-83
-1.55204e-83
9.65361e-84
3.82424e-86
1.83389e-86
8.28662e-87
1.57407e-89
1.71946e-90
-1.09194e-89
3.90468e-93
7.72157e-93
6.42651e-94
-1.77359e-96
1.28344e-96
1.07921e-96
-4.06574e-99
-1.86809e-98
-1.72707e-98
-4.61047e-102
1.91856e-101
5.11073e-103
-4.3341e-105
2.17285e-105
1.50423e-105
-3.714e-108
7.10045e-109
4.93978e-110
-3.00492e-111
-2.07966e-111
3.85876e-111
-2.34672e-114
1.8777e-116
-2.34288e-115
-1.78465e-117
9.62805e-118
-2.87617e-123
-1.3289e-120
1.46894e-123
-1.50536e-121
-9.73473e-124
-1.92237e-124
1.6682e-124
-7.03168e-127
-5.55069e-128
1.03459e-129
-5.03994e-130
-3.47131e-130
-4.71139e-130
-3.57657e-133
6.083e-134
-2.29084e-139
-2.51017e-136
-2.48957e-138
-1.02097e-137
-1.7497e-139
-3.25743e-140
-1.13408e-139
-1.21238e-142
-1.53695e-143
-2.05619e-143
-8.34616e-146
2.71028e-148
-2.90808e-147
-6.00246e-149
-1.84318e-150
-3.23347e-149
-5.21029e-153
-3.82926e-153
-2.52706e-07
3.26235e-08
-2.80424e-07
5.5358e-08
5.40269e-08
5.1961e-08
5.30892e-08
1.83314e-08
-7.08476e-09
-1.85306e-08
-1.89845e-08
-4.73337e-10
-7.31324e-09
-4.49027e-09
1.08791e-08
-3.66572e-07
1.32733e-08
3.10387e-07
4.90429e-09
3.97273e-09
-6.41956e-11
-5.57284e-07
1.46695e-08
-5.51238e-07
-5.45548e-07
-2.02047e-07
-1.6054e-09
1.82931e-08
-1.08419e-08
-2.27757e-07
1.5512e-08
1.42065e-08
1.04254e-08
9.26889e-09
1.46159e-08
3.23881e-09
1.11861e-08
8.17578e-10
2.56226e-09
-3.29603e-08
-1.05109e-12
-3.92407e-15
-1.03001e-14
9.86152e-14
8.29161e-15
3.71017e-15
8.00292e-21
-6.67471e-18
2.93249e-22
-2.23269e-18
8.36441e-18
-2.96498e-18
8.83726e-18
-5.29476e-18
-5.79217e-18
-5.29238e-18
7.1835e-25
-4.88367e-22
-1.65805e-25
-2.04829e-27
-9.44215e-25
1.03045e-28
5.0259e-29
-1.00596e-26
6.47129e-31
5.79046e-32
-1.14879e-30
7.43303e-34
9.86564e-36
-4.65404e-35
1.3348e-36
3.49853e-39
-2.9411e-38
1.75075e-40
2.35704e-42
-1.33397e-41
1.07138e-43
1.60998e-45
-4.14472e-45
-2.76886e-46
1.05359e-48
-2.49525e-48
3.88029e-50
6.82637e-52
-7.69643e-52
-1.45389e-53
4.42213e-55
2.5623e-55
-8.71325e-56
2.8445e-58
7.60601e-59
-1.18048e-60
1.81584e-61
-3.39281e-62
7.34768e-62
1.15017e-64
-7.45181e-66
5.19193e-66
7.23037e-68
-9.94215e-68
1.04946e-68
4.49994e-71
6.31887e-71
-7.78709e-71
2.76338e-74
-1.91388e-76
-1.12593e-74
1.67554e-77
-4.45942e-78
-1.25011e-78
9.97743e-81
-2.51971e-81
2.25014e-80
5.79926e-84
-6.5608e-84
-4.34173e-85
3.26601e-87
6.60379e-87
-3.69493e-87
1.76567e-90
-9.47793e-91
-1.09059e-90
9.02027e-94
-2.35718e-94
-4.39683e-95
4.02411e-97
-3.88312e-98
-1.48653e-97
1.33024e-100
-1.66967e-99
3.59398e-100
-2.3432e-105
-3.91394e-103
5.50575e-102
-6.32475e-107
2.95067e-106
-1.40447e-106
-8.34291e-110
2.30773e-109
-5.4972e-109
-8.32073e-113
-5.29493e-113
1.42096e-112
-7.4025e-116
-7.46095e-116
-1.7756e-116
-6.1277e-119
-9.81733e-119
-2.00598e-119
-4.8767e-122
1.91783e-122
9.59893e-124
-3.76333e-125
-4.35492e-125
7.7313e-126
-2.83418e-128
-2.47357e-128
-3.79383e-129
-2.10076e-131
-1.41246e-131
5.77834e-132
-1.53749e-134
1.34422e-134
2.66616e-135
-1.11334e-137
-9.49335e-138
-1.4968e-137
-7.95132e-141
8.08889e-142
-3.27658e-141
-5.64001e-144
6.74141e-144
-2.36345e-144
-3.96632e-147
9.49482e-148
1.06265e-147
-2.98737e-150
-1.16694e-150
-1.345e-150
6.17953e-155
1.51535e-157
2.97721e-08
-1.85538e-07
5.66113e-08
1.83787e-08
-2.49178e-07
1.71669e-08
1.81777e-08
1.76528e-08
2.45493e-08
3.17863e-07
2.72521e-08
2.00514e-07
-9.51523e-08
3.9601e-08
1.25631e-08
3.97398e-07
3.85322e-08
3.97179e-07
3.30113e-08
3.90067e-08
-2.00773e-08
-2.64106e-08
-1.57005e-07
1.05422e-07
-7.57633e-08
-8.80183e-08
-1.16621e-07
-2.54512e-08
-3.01726e-08
9.88349e-09
1.46086e-07
1.54764e-08
-2.242e-07
-4.12074e-08
3.30564e-07
1.67124e-08
1.53461e-08
1.73749e-08
3.48285e-08
-2.24168e-09
-1.87367e-08
5.23967e-09
5.87647e-09
-2.51302e-08
-7.07086e-11
4.28664e-11
5.63532e-12
5.69697e-12
-1.72778e-11
-1.32464e-12
6.88209e-18
-5.50775e-18
7.84845e-19
-4.69476e-18
6.34189e-19
1.10293e-17
8.09181e-18
3.27982e-17
1.58761e-23
-5.3981e-21
1.29772e-22
-5.25337e-20
-5.4448e-20
-5.51991e-20
-5.46209e-20
1.38995e-24
-1.81104e-24
1.52485e-26
1.40889e-26
5.68683e-27
-1.98027e-30
2.01366e-30
1.23639e-29
1.78369e-32
2.13261e-34
1.43238e-33
-1.8463e-37
1.33216e-37
6.78977e-37
9.28294e-40
8.99565e-41
2.80853e-40
-2.81365e-43
5.86131e-44
1.13596e-43
-6.84169e-46
3.8036e-47
5.26671e-47
-5.4163e-49
2.45828e-50
2.2738e-50
1.05264e-50
1.58253e-53
1.47548e-53
6.56527e-54
1.017e-56
7.4062e-58
2.40858e-58
6.5128e-60
-1.94794e-60
2.71529e-60
4.15416e-63
-3.16686e-64
-8.86062e-65
2.63955e-66
1.3455e-66
1.52917e-67
1.66902e-69
-3.48662e-70
1.19424e-69
1.04904e-72
3.19592e-73
5.94438e-73
6.56448e-76
-9.61598e-77
-1.15829e-77
4.08508e-79
5.69766e-80
2.52349e-79
2.52337e-82
1.53016e-82
-4.71879e-83
1.55073e-85
-8.51663e-87
3.62385e-86
9.46853e-89
-3.78536e-89
8.71801e-89
5.72451e-92
1.54755e-92
2.19579e-95
3.43095e-95
-7.22896e-97
5.87999e-99
2.02674e-98
-1.71102e-99
6.46595e-100
1.17696e-101
-1.478e-102
1.20114e-102
6.71581e-105
1.59141e-105
-2.18562e-105
3.74288e-108
-2.28458e-108
-4.22e-108
2.0141e-111
-2.05205e-111
-5.80709e-113
1.03144e-114
-1.87498e-114
6.94101e-115
4.87708e-118
-1.12077e-117
4.22445e-119
1.92717e-121
5.60243e-120
6.74047e-121
4.53849e-125
-1.59499e-123
2.11267e-124
-2.21329e-128
-1.14971e-126
-2.82345e-127
-4.68707e-131
-5.60403e-130
1.98784e-130
-5.29147e-134
1.42487e-132
-1.86601e-134
-4.90703e-137
-6.33449e-137
-9.71471e-137
-4.11342e-140
-1.84688e-139
3.85102e-140
-3.25814e-143
2.67597e-143
5.02492e-143
-2.49198e-146
-2.02675e-147
8.25329e-147
-2.16416e-149
2.86801e-150
-1.42902e-149
-7.61403e-153
2.59247e-153
1.0248e-08
1.00745e-07
-4.1022e-07
8.66884e-09
9.21817e-09
1.09509e-08
9.04312e-09
5.87575e-08
6.03099e-08
5.97382e-08
5.98873e-08
-4.68562e-07
-4.36923e-08
-3.19096e-08
-4.38939e-08
-2.95218e-08