/*--------------------------------*- C++ -*----------------------------------*\
| =========                 |                                                 |
| \\      /  F ield         | OpenFOAM: The Open Source CFD Toolbox           |
|  \\    /   O peration     | Version:  5.0                                   |
|   \\  /    A nd           | Web:      www.OpenFOAM.org                      |
|    \\/     M anipulation  |                                                 |
\*---------------------------------------------------------------------------*/
FoamFile
{
    version     2.0;
    format      ascii;
    class       volScalarField;
    location    "2.6";
    object      alpha.water;
}
// * * * * * * * * * * * * * * * * * * * * * * * * * * * * * * * * * * * * * //

dimensions      [0 0 0 0 0 0 0];

internalField   nonuniform List<scalar> 
9340
(
1.02428
1.00913
0.865621
1.04288
1.01435
0.99867
-2.97414e-17
-1.96269e-18
-4.94414e-21
9.08953e-18
7.21696e-19
2.90369e-21
3.91018e-25
2.7317e-29
9.2148e-33
3.88818e-36
1.56042e-39
6.63731e-43
2.82124e-46
1.08344e-49
5.41967e-53
2.13559e-56
1.15163e-59
3.44993e-63
1.72288e-66
1.08881e-69
4.9637e-73
1.23043e-76
8.30822e-79
1.71879e-82
1.3087e-85
1.02269e-89
1.96458e-92
1.22839e-94
4.38121e-98
1.79693e-101
1.88123e-104
4.22399e-107
4.3105e-111
3.64402e-115
4.08724e-118
1.79477e-120
2.26321e-123
6.53084e-126
9.66996e-130
1.3669e-132
3.29197e-136
2.68459e-140
4.53413e-142
4.1472e-145
1.0434
0.991266
0.967675
0.915014
0.996013
0.999485
-8.32641e-20
-4.55145e-19
-1.53783e-20
9.23699e-19
6.50326e-20
2.48833e-22
6.54113e-26
6.03023e-30
1.79651e-33
7.24811e-37
3.03791e-40
1.28631e-43
5.52231e-47
2.20441e-50
9.35031e-54
3.91762e-57
2.11018e-60
1.02915e-63
4.33402e-67
2.98461e-70
1.20232e-73
3.24012e-77
3.1652e-80
1.39118e-83
8.83735e-87
2.21246e-89
2.57221e-93
5.05401e-96
1.238e-99
9.69656e-103
6.97059e-106
4.71799e-110
1.66714e-111
1.33056e-114
1.89269e-118
2.3074e-121
2.19031e-125
4.36249e-129
8.94586e-132
2.00446e-134
1.21138e-137
2.27948e-141
8.85606e-145
1.74899e-145
1.00135
1.07553
1.05493
1.07658
0.996963
1.00938
0.628396
-6.30861e-20
-2.02068e-19
1.64531e-16
4.45869e-18
4.13929e-21
8.33009e-24
3.96822e-27
4.08691e-31
1.15497e-34
4.71003e-38
1.97358e-41
8.27395e-45
3.43727e-48
1.43186e-51
5.94711e-55
2.47676e-58
1.02195e-61
4.20697e-65
1.90162e-68
7.58938e-72
2.94611e-75
1.42171e-78
7.73663e-82
2.11058e-85
8.29274e-89
5.25154e-91
2.09715e-94
3.52172e-98
1.75885e-101
8.21958e-105
1.37245e-108
1.35961e-110
1.35629e-113
2.74063e-117
9.35215e-121
1.81073e-123
2.35553e-127
2.52204e-130
1.40636e-133
4.60628e-136
2.18497e-139
4.29239e-143
2.75086e-145
1.00162
1.04398
1.0121
1.01088
0.997759
0.999661
1.00001
-1.44954e-22
-1.02478e-20
-5.77912e-23
4.25058e-18
8.07556e-20
3.00489e-23
3.95586e-27
8.43752e-31
2.81022e-34
1.15773e-37
5.04072e-41
2.11045e-44
8.88547e-48
3.82303e-51
1.59357e-54
9.6432e-58
4.08534e-61
2.69394e-64
6.04906e-68
2.25793e-71
4.96671e-74
1.56838e-77
2.21236e-81
8.95807e-84
1.35011e-86
1.35269e-90
4.4555e-94
1.6688e-96
2.52728e-100
1.35997e-103
1.21901e-106
8.97986e-109
3.37803e-112
4.76743e-116
1.87562e-118
3.01509e-122
3.59419e-125
3.88315e-128
1.4533e-131
3.71384e-135
1.59967e-138
9.82934e-142
2.75719e-144
0.903194
1.06444
0.970689
1.01996
1.01269
1.02107
1.00128
-2.90841e-18
-3.19765e-20
-2.84541e-23
2.1997e-17
9.86793e-19
1.30496e-21
5.3149e-26
7.90326e-30
3.12262e-33
1.24243e-36
5.14046e-40
2.09752e-43
8.94806e-47
3.53282e-50
1.83939e-53
5.91067e-57
2.68832e-60
1.06786e-63
1.57906e-66
3.42678e-70
2.45614e-73
5.27666e-76
9.37625e-80
1.7545e-82
1.28369e-86
7.5046e-89
9.3621e-93
8.22889e-97
1.27505e-99
9.9084e-102
2.58415e-105
1.13211e-109
1.40437e-111
1.82872e-115
2.77704e-119
1.05161e-121
8.41605e-125
1.69509e-127
3.72875e-131
3.51949e-133
1.40932e-136
1.62508e-139
3.44427e-143
0.969536
0.93456
0.97638
1.00733
1.00007
0.995271
1.00153
-2.45209e-17
-3.17388e-19
-4.94885e-22
1.71461e-17
8.09337e-19
1.17576e-21
5.16388e-26
7.01265e-30
2.71004e-33
1.10758e-36
5.19851e-40
1.97979e-43
1.11407e-46
3.42581e-50
1.38604e-53
5.66968e-57
3.82351e-60
9.42087e-64
1.15429e-65
2.1688e-69
1.85539e-73
4.54246e-76
2.92466e-78
1.58306e-81
7.36345e-85
4.15541e-89
2.6815e-92
7.24637e-95
7.44099e-99
5.64899e-102
6.20913e-105
3.87862e-109
1.50854e-111
2.75762e-114
1.28816e-116
5.74754e-120
6.93993e-124
2.20222e-127
2.47625e-130
1.52492e-134
4.33445e-138
7.95075e-141
7.81413e-145
0.785846
1.01797
0.976865
0.979431
0.809045
1.0204
1.00248
-1.42165e-18
-2.37836e-19
-4.83275e-23
4.0415e-18
7.07435e-20
2.63967e-23
4.57723e-27
9.50932e-31
3.0643e-34
1.25726e-37
5.37418e-41
2.33445e-44
9.7708e-48
4.96407e-51
1.77977e-54
8.22451e-58
3.2242e-61
2.32331e-64
5.86895e-68
2.33837e-71
1.78379e-74
4.81272e-77
5.93186e-81
1.173e-84
6.93299e-88
2.1339e-91
3.42816e-94
8.10749e-98
2.11449e-100
5.26567e-104
2.67717e-106
1.70306e-109
1.34735e-112
2.40848e-116
2.57768e-119
1.47799e-122
7.20847e-127
5.66557e-129
1.4282e-132
1.4878e-134
3.97882e-138
2.53639e-142
5.76437e-144
1.07189
1.0002
1.0259
1.03525
1.00931
1.00023
1
-2.54169e-22
-3.99898e-19
1.66273e-16
4.46663e-18
4.84761e-21
8.64948e-24
3.81675e-27
4.12539e-31
1.1974e-34
4.89202e-38
2.04914e-41
8.58201e-45
3.60855e-48
1.49288e-51
6.31086e-55
2.64588e-58
1.06283e-61
4.38116e-65
1.95746e-68
9.37362e-72
3.14908e-75
1.25794e-78
7.21915e-82
2.26429e-85
1.98242e-88
1.79121e-91
3.478e-95
1.55203e-98
5.11502e-101
4.75352e-105
9.61817e-108
7.17941e-111
7.46009e-114
2.39441e-118
2.22912e-120
2.73807e-123
9.97001e-127
7.69303e-131
1.50912e-134
5.47309e-138
2.11182e-141
9.06986e-145
2.50724e-145
1.03498
1.08567
1.00935
1
0.999386
1.00148
0.521158
-4.66425e-19
-8.60923e-20
2.08013e-22
7.41556e-20
6.0381e-22
6.60057e-26
5.52963e-30
1.75095e-33
7.12895e-37
2.98266e-40
1.24491e-43
5.23358e-47
2.17525e-50
8.93358e-54
3.73009e-57
1.54499e-60
6.47483e-64
6.0381e-67
1.36504e-70
4.86672e-74
2.12908e-77
8.92555e-81
4.83627e-84
4.76648e-86
2.00091e-89
1.80342e-93
4.36879e-97
2.90225e-99
9.3317e-103
6.84473e-106
6.70016e-110
1.49954e-113
1.31059e-115
2.25964e-118
4.10816e-121
7.99361e-125
7.12126e-129
2.14448e-132
8.77286e-136
1.07758e-137
2.46243e-140
2.45656e-143
2.70288e-145
1.05507
1.0113
1.02706
1.10999
0.99119
0.986331
0.000287288
-2.80671e-18
1.51712e-20
7.8063e-18
8.13619e-19
5.56701e-21
1.48794e-24
8.18908e-29
2.41863e-32
9.9209e-36
4.05472e-39
1.67838e-42
6.9032e-46
3.02728e-49
1.17097e-52
4.78437e-56
1.92208e-59
7.81669e-63
4.27586e-66
1.32254e-69
5.44391e-73
2.91215e-76
1.01201e-78
2.8842e-82
3.31342e-86
1.97238e-88
1.76386e-91
7.54399e-95
1.6689e-98
7.11912e-102
1.47081e-104
2.74102e-108
1.88768e-110
3.13746e-114
4.3828e-118
6.97619e-122
1.02525e-123
3.3947e-127
5.0298e-130
5.5112e-133
2.23821e-136
1.1594e-139
7.24945e-143
2.88118e-145
1.03511
1.00965
0.907864
1
0.966019
0.981438
9.27291e-08
3.41479e-14
4.32225e-17
1.66498e-17
2.15859e-18
4.54397e-20
8.79993e-23
1.45671e-26
3.34608e-30
2.34415e-33
1.68929e-36
1.17578e-39
8.1399e-43
5.62713e-46
3.88578e-49
2.67758e-52
1.84023e-55
1.26274e-58
8.64451e-62
5.90397e-65
4.02802e-68
2.74222e-71
1.86157e-74
1.26132e-77
8.52459e-81
5.74741e-84
3.87045e-87
2.60103e-90
1.7453e-93
1.1689e-96
7.80631e-100
5.19889e-103
3.45764e-106
2.2967e-109
1.52234e-112
1.00725e-115
6.65003e-119
4.37984e-122
2.88007e-125
1.88879e-128
1.2365e-131
8.08464e-135
5.2735e-138
2.0411e-141
0.99116
0.943949
0.96308
1
0.998701
1.00277
1.26885e-05
1.94435e-13
1.82301e-16
1.11712e-17
6.07777e-19
3.6919e-21
2.37821e-24
3.77211e-28
1.81634e-31
1.3425e-34
9.70297e-38
6.84397e-41
4.81885e-44
3.38167e-47
2.37184e-50
1.65865e-53
1.15736e-56
8.07366e-60
5.61174e-63
3.88974e-66
2.69296e-69
1.85892e-72
1.28011e-75
8.79817e-79
6.06424e-82
4.14927e-85
2.82701e-88
1.92808e-91
1.31334e-94
8.92093e-98
6.05108e-101
4.08698e-104
2.75919e-107
1.85738e-110
1.24804e-113
8.36429e-117
5.5998e-120
3.74884e-123
2.49514e-126
1.66012e-129
1.1021e-132
7.30459e-136
4.8306e-139
1.89826e-142
1.09308
1.11308
1.27365
1.12416
1.06688
1.00807
0.628677
8.17766e-13
1.40848e-15
1.423e-15
9.43298e-17
2.52683e-19
2.19771e-23
3.92984e-27
2.74873e-30
1.93685e-33
1.34403e-36
9.29396e-40
6.41366e-43
4.42081e-46
3.04612e-49
2.09737e-52
1.4423e-55
9.91083e-59
6.79482e-62
4.65421e-65
3.18605e-68
2.17701e-71
1.48558e-74
1.01449e-77
6.9161e-81
4.70922e-84
3.20482e-87
2.17653e-90
1.47374e-93
9.97777e-97
6.74685e-100
4.55379e-103
3.07008e-106
2.06562e-109
1.38682e-112
9.29941e-116
6.23153e-119
4.16918e-122
2.78624e-125
1.85874e-128
1.23713e-131
8.22015e-135
5.45103e-138
2.14242e-141
1.01468
1.07132
0.998745
1.01628
0.995023
0.998727
1.00038
7.45089e-10
3.09689e-15
2.99247e-17
2.60498e-17
1.39691e-18
3.27417e-21
3.44774e-25
6.94531e-29
4.91268e-32
3.50997e-35
2.43337e-38
1.68166e-41
1.1615e-44
8.01579e-48
5.52191e-51
3.79503e-54
2.61174e-57
1.78739e-60
1.22298e-63
8.36783e-67
5.71399e-70
3.90197e-73
2.6506e-76
1.8004e-79
1.22139e-82
8.26517e-86
5.58742e-89
3.77281e-92
2.54292e-95
1.71136e-98
1.14967e-101
7.70665e-105
5.15879e-108
3.44708e-111
2.30774e-114
1.53665e-117
1.02184e-120
6.77148e-124
4.48812e-127
2.96889e-130
1.96117e-133
1.29284e-136
5.05308e-140
1.14162
1.01195
1.13531
1.01149
1.01183
1.02174
1.0018
4.57876e-08
4.36054e-14
2.983e-16
2.55738e-16
2.14213e-17
1.12538e-19
2.38501e-23
2.52749e-27
1.59218e-30
1.13936e-33
7.8243e-37
5.33962e-40
3.63964e-43
2.47885e-46
1.68514e-49
1.14285e-52
7.74288e-56
5.23437e-59
3.53033e-62
2.37974e-65
1.60069e-68
1.07405e-71
7.19546e-75
4.81259e-78
3.2119e-81
2.14112e-84
1.42381e-87
9.4505e-91
6.2663e-94
4.14607e-97
2.73691e-100
1.80414e-103
1.18781e-106
7.80662e-110
5.1237e-113
3.35557e-116
2.19296e-119
1.43133e-122
9.32556e-126
6.0633e-129
3.93725e-132
2.55196e-135
9.82219e-139
1.02091
0.980836
0.961977
1.09627
1.00429
0.995141
1.00229
8.49415e-08
4.58718e-14
5.13273e-16
4.70624e-16
4.0637e-17
2.16268e-19
4.5109e-23
4.71123e-27
2.97052e-30
2.12545e-33
1.4594e-36
9.95896e-40
6.78649e-43
4.61774e-46
3.1372e-49
2.12696e-52
1.4397e-55
9.72398e-59
6.55309e-62
4.41508e-65
2.96857e-68
1.9914e-71
1.33382e-74
8.90841e-78
5.93614e-81
3.95459e-84
2.62948e-87
1.74388e-90
1.15507e-93
7.6354e-97
5.03776e-100
3.32008e-103
2.18382e-106
1.43373e-109
9.40005e-113
6.14955e-116
4.01268e-119
2.61468e-122
1.70062e-125
1.10374e-128
7.15903e-132
4.63763e-135
1.78456e-138
1
1.04413
1.0132
0.977288
1.01498
1.01951
1.00412
1.0231e-08
2.5874e-15
2.07592e-17
1.73046e-17
9.75259e-19
2.47521e-21
2.61772e-25
5.01335e-29
3.51831e-32
2.48902e-35
1.72018e-38
1.1837e-41
8.15722e-45
5.63553e-48
3.88358e-51
2.65957e-54
1.82875e-57
1.2687e-60
8.5737e-64
5.85798e-67
4.00245e-70
2.73238e-73
1.8635e-76
1.26449e-79
8.58914e-83
5.83144e-86
3.95052e-89
2.68228e-92
1.80594e-95
1.21752e-98
8.21667e-102
5.5295e-105
3.70019e-108
2.47957e-111
1.66062e-114
1.10914e-117
7.3962e-121
4.92126e-124
3.26999e-127
2.18074e-130
1.43825e-133
9.52151e-137
3.85698e-140
1.01611
1.01509
1.08767
1.01239
1.04056
1.00644
1
5.73482e-11
1.61836e-15
1.6837e-15
1.30025e-16
4.60061e-19
5.18935e-23
7.11553e-27
4.88633e-30
3.44552e-33
2.36889e-36
1.62387e-39
1.11134e-42
7.59685e-46
5.18939e-49
3.53945e-52
2.41041e-55
1.64015e-58
1.11456e-61
7.56096e-65
5.12308e-68
3.46594e-71
2.34123e-74
1.58097e-77
1.06711e-80
7.19047e-84
4.83861e-87
3.24935e-90
2.17854e-93
1.45991e-96
9.76752e-100
6.52389e-103
4.35491e-106
2.90139e-109
1.92948e-112
1.28178e-115
8.50227e-119
5.62995e-122
3.7241e-125
2.45951e-128
1.62018e-131
1.06645e-134
7.01638e-138
2.73857e-141
1.02918
1.04223
0.990753
0.999888
0.985695
1.00741
0.522877
9.04353e-13
9.85481e-16
9.75282e-19
2.93663e-19
2.75385e-21
7.07491e-25
1.12189e-28
6.7541e-32
5.00418e-35
3.63416e-38
2.59252e-41
1.84404e-44
1.30963e-47
9.28804e-51
6.57133e-54
4.64087e-57
3.26985e-60
2.30267e-63
1.61479e-66
1.1304e-69
7.90267e-73
5.50897e-76
3.83456e-79
2.66327e-82
1.84304e-85
1.27377e-88
8.78027e-92
6.04492e-95
4.14805e-98
2.84143e-101
1.9437e-104
1.32521e-107
9.02173e-111
6.12801e-114
4.15094e-117
2.80704e-120
1.89341e-123
1.27552e-126
8.56905e-130
5.74334e-133
3.84677e-136
2.57075e-139
1.01796e-142
1.06761
1.02436
0.992633
1.0552
1.00367
1.00382
0.00117868
1.07572e-15
1.16134e-17
1.11448e-17
1.25152e-18
2.18406e-20
3.79058e-23
6.63877e-27
1.66973e-30
1.17179e-33
8.49932e-37
5.9522e-40
4.14376e-43
2.88044e-46
1.99915e-49
1.38403e-52
9.55845e-56
6.59191e-59
4.53552e-62
3.11271e-65
2.13274e-68
1.45843e-71
9.9507e-75
6.77637e-78
4.6033e-81
3.1188e-84
2.10808e-87
1.4226e-90
9.57904e-94
6.44106e-97
4.32053e-100
2.89098e-103
1.93048e-106
1.28719e-109
8.56443e-113
5.68749e-116
3.76924e-119
2.49214e-122
1.64463e-125
1.08293e-128
7.1159e-132
4.67151e-135
3.05813e-138
1.18716e-141
1.04221
1.00878
1.04768
0.828755
1.01273
0.980887
7.69576e-08
-1.89203e-18
-5.57675e-21
4.18095e-18
3.79844e-19
1.94274e-21
3.71438e-25
2.34944e-29
7.45085e-33
3.23196e-36
1.25098e-39
5.34871e-43
2.25468e-46
1.45089e-49
4.35291e-53
1.91311e-56
7.86682e-60
2.65945e-63
2.17108e-66
1.82931e-69
3.7266e-73
2.67073e-76
3.86362e-79
7.32079e-83
1.82738e-86
4.98726e-90
1.20067e-92
5.74279e-95
3.08305e-98
7.78035e-102
1.97851e-104
1.0855e-107
5.23597e-112
1.22407e-113
6.80202e-117
3.2993e-121
5.37946e-124
3.63591e-128
1.66791e-130
1.48594e-132
4.32044e-136
1.45443e-139
1.43527e-142
5.28719e-145
1.02969
0.941568
0.910204
1.22797
0.988528
1.00742
6.68771e-06
-6.98898e-19
-1.5219e-20
1.05147e-18
7.85139e-20
3.14954e-22
8.14033e-26
7.29747e-30
2.16347e-33
8.69346e-37
3.63271e-40
1.52871e-43
6.51906e-47
2.62229e-50
1.14357e-53
4.69282e-57
2.54361e-60
1.17574e-63
5.13047e-67
1.76905e-70
1.28047e-73
3.56696e-77
1.17722e-79
1.96255e-83
3.62804e-86
3.66424e-89
2.88209e-92
5.05563e-96
4.02643e-99
2.23654e-102
2.67988e-106
7.96479e-110
5.17595e-111
6.26321e-114
5.13192e-118
7.22187e-122
5.02482e-125
4.27674e-127
2.207e-130
2.71688e-134
2.15521e-137
2.26976e-141
4.0152e-144
2.40641e-145
1.04884
1.0486
1.01456
0.859185
1.02147
1.0014
0.628443
2.87446e-13
-2.02326e-19
1.63273e-16
4.52947e-18
4.51719e-21
9.96779e-24
4.96301e-27
5.00436e-31
1.39064e-34
5.66279e-38
2.37231e-41
9.93527e-45
4.12909e-48
1.72351e-51
7.13384e-55
3.00816e-58
1.24958e-61
5.3437e-65
2.08362e-68
9.218e-72
3.5443e-75
1.45061e-78
9.66959e-82
2.5303e-85
9.89726e-89
4.41484e-92
6.75801e-95
1.26265e-98
1.62453e-101
9.28217e-105
2.67613e-108
1.91325e-111
5.25532e-114
5.43367e-117
5.65318e-121
1.80869e-124
4.02074e-127
1.35052e-129
3.15862e-133
4.72068e-136
1.88978e-139
6.58934e-143
3.61219e-145
1.03628
1.03047
0.980675
0.947533
1.03078
0.996346
1.00032
3.21287e-10
-1.01726e-20
9.58084e-24
4.40104e-18
8.31279e-20
3.03851e-23
3.9067e-27
8.3983e-31
2.80445e-34
1.15656e-37
4.95078e-41
2.10161e-44
8.91032e-48
3.76639e-51
1.58272e-54
6.95096e-58
4.16506e-61
1.29976e-64
5.48005e-68
2.18509e-71
8.53274e-74
4.64237e-77
3.59144e-81
7.99532e-84
3.83854e-87
6.15824e-91
2.08295e-94
1.68951e-97
6.38758e-101
1.47073e-103
1.95175e-106
1.26234e-110
1.7489e-112
8.49179e-116
9.46593e-119
1.16887e-121
1.62543e-125
6.45028e-129
1.51539e-131
1.07765e-134
5.98789e-139
1.35164e-142
3.15587e-145
1.06833
0.948668
1.01932
0.960805
0.992556
1.02609
1.00174
2.82417e-08
-3.17201e-20
-2.65531e-23
2.27135e-17
1.01654e-18
1.33817e-21
5.41328e-26
8.07834e-30
3.11943e-33
1.2663e-36
5.19688e-40
2.25595e-43
8.84553e-47
3.53377e-50
1.51836e-53
6.303e-57
2.6959e-60
1.24644e-63
4.16336e-66
4.05913e-70
8.11314e-74
5.67997e-77
8.41367e-80
9.19029e-83
5.31576e-87
7.15951e-89
1.43984e-92
3.01253e-95
1.48228e-99
8.27024e-102
2.50299e-105
2.08242e-107
5.05929e-111
3.5429e-115
5.13387e-117
1.46307e-120
8.14317e-124
2.21724e-127
3.08012e-131
7.84789e-133
2.65311e-136
1.02832e-139
2.25727e-142
1.05782
1.00044
1.00487
1.02976
0.969749
0.992114
1.00161
5.23843e-08
-3.15051e-19
-4.95055e-22
1.75854e-17
8.28403e-19
1.19862e-21
5.27416e-26
7.21452e-30
2.79222e-33
1.13828e-36
4.73921e-40
1.94941e-43
1.53304e-46
4.10327e-50
2.6347e-53
8.00698e-57
3.22719e-60
1.40937e-63
3.9729e-67
2.13913e-70
7.54093e-74
2.58795e-77
1.39735e-78
1.14103e-81
5.07157e-85
3.80218e-89
4.74411e-92
5.48115e-96
9.67326e-99
7.59278e-102
6.34857e-105
3.99886e-109
7.24053e-111
4.13403e-114
1.9889e-118
4.11969e-120
1.87326e-123
4.18474e-127
2.13421e-131
2.95644e-134
2.58676e-136
7.70537e-140
2.31552e-144
1.05173
1.00776
0.991058
0.997418
1.02924
1.01214
1.00363
5.84462e-09
-2.36997e-19
-8.76468e-24
3.91763e-18
6.88855e-20
2.60972e-23
4.56763e-27
9.44771e-31
3.04595e-34
1.25e-37
5.38534e-41
2.31666e-44
9.74291e-48
4.84837e-51
1.8187e-54
8.01888e-58
3.39164e-61
1.87357e-64
1.28396e-67
2.75336e-71
1.16663e-74
3.77553e-77
7.26813e-81
1.12448e-84
3.01674e-87
2.78281e-91
2.403e-94
8.95111e-97
2.22658e-100
3.44814e-104
2.17251e-106
5.56389e-110
9.18117e-113
1.51322e-116
2.52527e-120
4.54847e-122
1.98859e-125
3.46331e-129
3.10937e-133
9.54269e-137
3.81715e-140
6.43665e-143
1.08011e-143
0.936681
1.05976
1.08679
0.92637
0.925229
1.01148
1
2.74482e-11
-4.12185e-19
1.75427e-16
4.22208e-18
4.11484e-21
8.5861e-24
3.9058e-27
4.11398e-31
1.18672e-34
4.85014e-38
2.03062e-41
8.5238e-45
3.5596e-48
1.47877e-51
6.24318e-55
2.58843e-58
1.05306e-61
5.01036e-65
1.90816e-68
9.56848e-72
5.19924e-75
1.35655e-78
1.13726e-81
2.58012e-85
9.68888e-89
1.18125e-91
5.76664e-95
1.001e-98
8.15172e-102
1.82878e-104
3.40188e-108
5.88171e-111
2.28695e-113
1.16076e-116
1.3651e-119
1.20876e-123
1.80769e-127
9.82316e-131
2.54475e-134
9.61957e-138
3.76844e-141
1.5396e-144
2.67598e-145
1.02721
1.0146
0.962742
0.986555
1.02099
1.00115
0.522906
-4.15123e-19
-7.77092e-20
2.11132e-22
6.98254e-20
5.67391e-22
6.00184e-26
5.11146e-30
1.61936e-33
6.59016e-37
2.75455e-40
1.14575e-43
4.79932e-47
2.0081e-50
8.23839e-54
3.47988e-57
1.43109e-60
6.05695e-64
2.45845e-67
1.00918e-70
4.15435e-74
1.80514e-77
7.01928e-81
3.78778e-84
3.07649e-86
1.05291e-89
1.04319e-92
6.0087e-96
3.68362e-99
1.89144e-102
4.52633e-106
3.92275e-109
3.8937e-113
2.12478e-115
4.02684e-119
4.69147e-123
3.88911e-125
6.76163e-128
7.17397e-131
7.21537e-135
5.39528e-138
5.04342e-141
2.69628e-143
2.70025e-145
1.05992
1.01466
1.03759
1.07094
1.00394
1.00441
0.00107204
-3.05753e-18
1.18407e-20
5.66316e-18
5.93145e-19
4.09827e-21
1.11666e-24
6.164e-29
1.81197e-32
7.4239e-36
3.04303e-39
1.27105e-42
5.19087e-46
2.11283e-49
8.86214e-53
3.64632e-56
1.4575e-59
5.96006e-63
3.24902e-66
1.14013e-69
5.40912e-73
1.87723e-76
3.8651e-79
1.61125e-82
1.72541e-86
2.40666e-88
8.04088e-92
5.76167e-96
2.14232e-99
1.28779e-101
1.95811e-104
1.8517e-108
1.92288e-110
6.39409e-114
2.48862e-117
7.25234e-120
1.77926e-123
6.53587e-127
6.78644e-131
5.6748e-133
4.3252e-136
1.96231e-139
1.04616e-142
2.75094e-145
0.122751
1.02115
0.200606
0.999986
0.133988
1.01971
0.207066
0.369099
1.02517
0.960249
1.00256
0.38113
1.02356
0.957001
1
1.00078
1.0001
1.00883
1
1.00098
1.00035
1
1.00476
1.0014
0.999157
0.999988
1.00481
1.00138
1.00253
0.999996
1.00263
1.02105
1.00239
0.999099
1.00257
1.00261
1.00897
1.00509
1
1.00306
1.01043
1.0051
1.00358
1.00625
1.00166
1.01961
1.00665
1.00821
1.00096
1.00007
1.0071
1
1.0041
0.999782
1.00854
0.999994
1
0.994734
0.629529
1.0027
1
0.995533
0.630346
0.454344
0.968926
0.0851133
0.983622
0.455608
0.997312
0.0912306
0.138219
1.01999
0.209434
0.980203
0.134574
0.99535
0.212388
0.381961
1.02191
0.95686
1.00708
0.380474
1.02016
0.957469
1
1.00138
1.00132
1.00372
1
1.00031
1.00051
1.00035
1.00346
1.00189
0.999072
1
1.00329
1.00135
1.00312
0.999562
1.00333
1.03228
1.00243
0.998881
1.00217
1.003
1.00662
1.00531
0.98108
1.00111
1.00391
1.00499
1.00643
1.00556
1.00155
1.01707
1.00593
1.00732
1.001
1.00013
1.01418
0.999987
1.0149
0.999916
1.02376
1
0.999994
0.997805
0.629814
0.999584
1
1
0.630175
0.455403
0.998039
0.0916826
1.01147
0.454626
0.999526
0.0935262
0.127408
0.997543
0.204258
0.988663
0.123097
0.993029
0.199201
0.37969
1.01962
0.957785
1.01142
0.36952
1.01295
0.960872
1
1.00153
1.00119
0.998469
1
1.00267
1.00016
1.00036
1.00419
1.00195
0.998594
1
1.00326
1.00166
1.00314
0.99939
1.0026
1.02464
1.00253
0.997982
1.00209
1.00135
1
1.00525
0.987993
1.00138
1.00222
1.0052
1.00599
1.00843
1.00151
1.01012
1.00475
1.00649
1.00161
1.00021
1.02379
1
1.01062
1.00013
1.02883
1
1
0.999968
0.630007
1.00016
1
1.00032
0.6296
0.454394
1.00005
0.0921994
0.993978
0.45245
1.0161
0.0832374
1.00907
0.962568
1.0119
1.06568
1.01608
0.968674
1.02714
1
0.999993
1.00108
0.997226
1.00087
1
1
-6.30108e-16
-1.16225e-16
-1.14802e-17
6.60982e-08
1.00293e-11
6.66142e-07
1.50353e-11
0.993654
1.02812
1.04685
0.947575
0.999734
0.935076
1.04784
1.00146
1.00007
1.01084
1.00173
1.00015
1.0154
1.00366
-5.1496e-19
0.295159
-2.03735e-21
8.68225e-06
7.4586e-11
0.304048
4.46078e-11
1.01843
1.02068
1.00454
1
1.0334
1.01421
1.00379
1.00451
1.00487
1.0082
1.0092
1.00468
1.00878
1.00432
-3.13401e-21
1.00001
-2.80195e-19
0.628823
2.94605e-10
1.00017
1.86952e-08
1
1.02985
1.00415
0.991837
0.998706
1.02029
1.00634
0.987396
0.999823
1
0.999995
0.998222
1
0.982813
-6.99348e-20
1.00142
0.012637
1.00097
2.51025e-07
1.00201
0.0194038
1.02912
1
0.981294
1.01202
1.02795
1
0.984932
1.00367
1.00903
1.00674
1.02116
1.00901
1.0056
1.00368
0.0399399
1.00163
0.095304
1.00249
0.0473716
1.00204
0.102107
0.95663
0.969994
1
1.00278
0.878517
0.98457
1
1.00296
1.00164
0.999922
0.994768
1.00135
1
1.00346
0.107649
1.00262
0.0371162
1.00256
0.115461
1.00304
0.0441524
1.05198
1.02376
1.03706
1
1.00707
0.997564
1.04265
1.01683
1.00924
1.03569
1.02035
1.00956
1.03537
1.01631
0.0120852
1.00034
-8.05437e-20
1.00397
0.0185243
1.00082
2.47628e-07
0.999668
1.03544
1.00933
1.04737
0.999928
1.03247
1.00735
0.994891
1.00022
1.00063
1.00117
1.0004
1.00156
0.99641
-6.84934e-22
0.726365
-1.14443e-19
1.00009
2.0431e-08
0.729759
4.37292e-10
0.998693
1.0074
0.947972
0.95262
1
0.980116
0.974712
1
1.00249
0.999732
1.00047
1.00176
0.996058
1.00012
-4.02648e-16
0.0171431
-1.3762e-16
0.522769
3.24025e-10
0.0234702
4.87824e-10
1
1.0262
0.911441
0.990219
1.0468
1.0378
1.04298
0.997006
0.99563
0.98934
0.969307
0.991822
0.985435
0.997581
-5.57579e-17
-5.34065e-14
-3.18181e-17
0.00104188
3.20994e-13
2.44929e-07
3.21111e-13
0.99206
0.99001
0.994734
1.02158
0.999596
0.980657
0.972177
0.99959
0.999987
0.999699
0.969767
1
0.997043
0.99979
3.52238e-11
7.56729e-07
5.33889e-11
9.93212e-08
3.5226e-11
6.83293e-07
5.36143e-11
1.00085
1.02361
1.04791
1.00005
1.02906
1.00148
1.03955
0.996407
1.00054
0.998172
1.00947
0.999959
1.00054
0.992996
3.1348e-10
0.304726
1.67406e-10
1.00346e-05
3.13218e-10
0.304472
1.67406e-10
1.01641
1.02443
1.00277
1.03062
1.00851
1.00826
1.00104
1.00445
1.00434
1.01167
1.00907
1.00489
1.00422
1.01253
6.90408e-10
1.00064
3.15562e-08
0.628306
6.93119e-10
1.00018
3.14821e-08
0.978189
1.03851
0.995378
1.00909
0.954847
1.02594
0.994188
0.989256
0.993493
0.950901
1
0.990137
0.997318
0.950511
4.1505e-07
1.00203
0.0204241
1.00089
4.30196e-07
1.00188
0.0201008
1.01942
0.985866
0.96423
0.993314
1.02528
0.832805
0.989675
1.00404
1.00859
1.00836
1.02186
1.004
1.00849
1.00835
0.0478846
1.00277
0.103737
1.00249
0.0479174
1.00197
0.103562
0.892683
0.94968
0.999897
0.998882
0.939113
0.980864
0.978517
1.00003
1
0.98873
0.993751
1.00053
1
0.971536
0.116355
1.00379
0.0449052
1.00171
0.116567
1.00309
0.0447651
1.03678
0.9604
1.02424
1.02571
1.0215
0.941705
1.0291
1.01914
1.00886
1.03282
1.02053
1.01869
1.00941
1.03417
0.0192931
1.00154
3.99132e-07
1.00342
0.0193251
1.00091
3.92525e-07
1.00035
1.03697
1.02025
0.999963
1.00791
1.00269
1.03441
0.994706
1.00077
1.0137
1.00523
0.995668
1.00072
1.02108
3.43317e-08
0.730164
9.34621e-10
1.00024
3.46291e-08
0.72691
9.43323e-10
0.965425
0.992888
1.01517
1.05213
0.976337
0.933776
0.943299
0.999801
1.00147
0.959773
1.00503
0.999
1.00163
0.959727
1.10766e-09
0.024371
1.93105e-09
0.522924
1.10766e-09
0.0242671
1.93509e-09
1.04088
1.03705
1.03468
0.97159
1.03498
1.03808
0.982219
0.992573
0.999316
0.923764
0.99581
0.997635
0.999673
0.926601
1.52027e-12
3.22112e-07
1.52034e-12
0.00119289
1.52025e-12
3.32378e-07
1.52027e-12
0.933323
0.958648
0.982255
1.03462
0.911258
0.987154
0.984692
0.99999
0.999632
0.978765
0.982978
0.999307
0.995653
0.999545
1.15057e-11
7.00181e-07
1.72783e-11
-2.22631e-17
-6.41421e-16
-1.63045e-16
-1.33734e-17
1.00536
0.9726
0.989108
1.00669
1.00346
1.00754
0.930103
0.989913
1.00205
0.991691
1.00475
0.99132
1.00191
0.97618
7.33456e-11
0.303878
4.4531e-11
3.09069e-24
-7.34993e-19
0.29509
-9.51786e-22
1.00183
1.01885
1.00881
1.02287
1.00126
1.0186
1.00547
1.00388
1.00298
1.01106
1.00124
1.00378
1.00475
1.01405
2.8798e-10
1.0005
1.86778e-08
0.627919
-2.02838e-21
1.00001
-2.85037e-19
0.963209
1.03206
1.00289
1.02709
0.936242
1.0257
1.00477
0.988707
0.995103
0.949227
0.998225
0.988113
0.995608
0.948054
2.56661e-07
1.00194
0.0193813
1.00003
-7.98145e-20
1.00108
0.0127492
1.03616
0.837156
0.999359
0.980151
1.02165
0.773194
0.967153
1.00349
1.0088
1.00941
1.02471
1.00374
1.00906
1.01129
0.046912
1.00267
0.103301
1.00135
0.0397829
1.00145
0.0951509
0.980775
0.965599
0.985542
0.989707
0.990901
0.981513
0.969041
0.991203
0.999886
0.985539
0.965064
0.992376
0.999561
0.953884
0.11471
1.00375
0.0441941
1.00119
0.106957
1.00253
0.0371569
1.00763
0.962078
1.03371
1.01099
1.00287
0.979438
1.02687
1.01497
1.00921
1.02205
1.01131
1.01781
1.00954
1.01717
0.0181134
1.00147
2.44769e-07
1.00292
0.0119842
1.0003
-9.01657e-20
1.01022
0.956487
1.02298
0.926783
1.01036
0.931603
1.03533
1.00049
1.00053
1.0112
1.01417
0.999943
1.00073
1.01124
2.06146e-08
0.725834
4.91205e-10
1
-2.60286e-21
0.722213
-1.11077e-19
0.994096
0.952943
1
1.02156
0.975322
0.976273
1.01567
0.999936
1.00155
0.998319
1.00044
0.999283
1.00203
0.997605
3.2014e-10
0.0234522
4.83681e-10
0.52121
-3.4498e-16
0.017109
-1.4816e-16
1.03026
1.00918
1.01334
0.936275
0.948216
0.998644
1.04418
0.99943
0.999592
0.934251
1.07365
0.998256
1
0.946824
3.57651e-13
2.77503e-07
3.57669e-13
0.000300521
-7.64879e-17
-4.45789e-14
-5.40487e-17
0.79316
0.855015
0.0769608
0.126265
0.0797916
0.793051
0.853309
1.00576
1.03923
1.00381
1.02079
1.03853
1.00345
1.00376
0.893116
0.158466
0.921007
0.202114
0.16469
0.921421
0.898368
1
1
0.999999
1.00021
1.00068
1
0.999999
0.792332
0.129405
0.847994
0.083635
0.0816667
0.7919
0.851161
1.00465
1.02175
1.03682
1.00236
1.03768
1.00297
1.00623
0.893681
0.204543
0.169037
0.91923
0.165791
0.919997
0.889925
1.00008
0.991393
0.575665
0.375894
0.987837
0.576416
1.00013
1.01216
1.03071
1.00732
1.02506
1.03106
1.00692
1.01168
1.00232
0.799184
1.0005
0.958733
0.79872
1.00047
1.00201
1.00112
1.00255
1.00028
1.00253
1.00023
1.02321
1.00021
1.00023
0.377957
0.98523
0.576594
0.986686
0.575907
1.00005
1.0117
1.02348
1.03132
1.00662
1.031
1.00751
1.01125
1.0022
0.95746
0.799776
1.00057
0.798222
1.00055
1.00177
1.00183
1.00147
1.00026
1
1.0016
1.00052
1.00215
1.00135
0.999789
1.00038
1.00075
1.00006
1.00031
1.00163
1.00119
1.00065
1.00027
1.00025
1.00096
0.999999
1.00224
1.00488
1.00903
1.00466
1.01041
1.00457
1.00885
1.00461
1.00223
1
1.00161
1.00014
1.00194
1.00039
1.00157
1.00163
1.00103
1.00013
1.00032
1.00031
1.00053
1.00125
1.00153
1.00133
1.0012
0.999892
1.0015
1.00058
1.00107
0.997809
0.998114
1.00008
0.99983
0.998469
1
0.99975
1.00117
1.00013
1.00404
1.00455
1.00017
1.00342
1.00316
1.00159
1.00046
1.0034
1.00226
1.00061
1.00315
1.0023
0.994485
0.999776
0.997051
0.955164
0.997398
0.982795
0.985881
0.998305
1.00029
0.997884
1
0.998816
1
1
0.999795
1.00482
0.998807
1.00324
0.999166
1.00391
1.00027
1.00162
1.00224
1.00057
1.00266
1.00107
1.00315
1.00118
1.00328
1.00512
1.00326
1.00259
1.00476
1.00325
1.00457
1.00014
0.998714
1.0045
0.9995
1
1.00396
1.00051
1.00173
1.00266
1.00382
1.0027
1.00276
1.00377
1.00271
1.00397
1.02094
1.00896
1.00712
1.00874
1.00636
1.00371
1.00362
1.00309
1.00448
1.00298
1.00487
1.00371
1.00301
1.0003
0.999094
1
1.00383
0.999142
1.00391
1.00026
1.00178
1.00327
1.00263
1.0038
1.00331
1.00413
1.00155
1.00316
1.00386
1.00275
1.00277
1.00372
1.00277
1.00382
0.999545
0.995307
1.00241
1.00953
0.969051
1.00232
1
1.00456
1.00506
1.00748
1.00494
1.00466
1.0074
1.00434
1.0023
0.997138
1.00141
0.999996
1.00198
0.998091
1.0016
1.00312
1.00329
1.0036
1.00256
1.00382
1.00325
1.00242
1.00009
1.01041
0.967548
1.00267
0.967443
1.00264
0.99993
1.00477
1.00519
1.0045
1.00715
1.00476
1.00725
1.00434
1.00954
1.00804
1.00514
1.00309
1.00647
1.00507
1.0094
1.00563
1.01568
1.00208
1.00706
1.016
1.00248
1.00595
1.00537
1.00363
1.00215
1.00119
1.00361
1.00202
1.00546
1.01806
1.01912
1.00988
1.03457
1.00962
1.03321
1.01937
1.00932
1.00401
1.00781
1.00537
1.00626
1.00536
1.00893
1.00523
1.00672
1.01704
1.00283
1.01571
1.00278
1.00476
1.0057
1.0016
1.00351
1.00207
1.004
1.00206
1.00552
0.992166
0.999947
0.999111
0.999904
0.999553
0.997681
0.985204
0.986078
1.00553
1.0037
1.0069
1.00634
1.00448
0.982013
0.974926
0.998253
0.991991
0.999993
0.999326
0.992442
0.98073
0.995138
1.00215
1.00064
1.00638
1.00049
1.00251
0.99498
0.996885
1.00019
0.999827
0.997375
1
0.998648
0.976271
0.992273
1.00685
1.01058
1.00417
1.00692
1.00449
0.994372
0.974826
1
0.999566
0.992959
0.999202
0.993697
0.974833
1.00023
1.00019
0.965276
1
1.00016
0.964488
1.00047
0.998589
0.955615
0.99989
0.994308
0.9682
1
0.997684
1
0.823508
1
0.629995
0.823697
1
1.00002
0.999924
1.0007
1.00151
0.978946
1.00141
0.991226
0.998674
1.00028
1.00003
1
0.962661
1.00008
0.963208
1.00012
1
0.999977
0.932909
0.999847
0.912357
0.999983
0.991447
1.00002
0.62951
0.823273
1.00007
0.823095
1.00016
1
0.94102
1
0.226753
0.454902
1
0.226146
0.939603
0.988232
0.918959
1
0.963716
0.953882
0.993205
0.998744
0.87918
0.1655
0.791897
0.0874861
0.179831
0.887707
0.795456
0.996638
0.992573
0.996049
0.922274
0.998237
0.943507
0.993876
0.940131
0.454967
1
0.228352
1
0.227188
0.941715
0.995059
0.998145
0.919967
0.999985
0.920724
0.990551
0.999998
0.888331
0.0891848
0.17456
0.794677
0.166812
0.880739
0.794005
0.78919
0.844237
0.0854892
0.138988
0.790231
0.0854779
0.843727
1.00441
1.03395
1.00295
1.01476
1.00406
1.03587
1.00189
0.891264
0.168618
0.916922
0.211834
0.892369
0.167201
0.914965
0.997254
0.969654
0.999622
0.983973
0.991062
0.997748
0.999488
0.797879
0.138618
0.848921
0.0779536
0.0780608
0.79676
0.843653
1.00311
1.00501
1.01641
1.00106
1.03143
1.00208
1.00508
0.885747
0.212967
0.183378
0.914522
0.175309
0.913957
0.874992
1
0.98466
0.576088
0.382116
1.00014
0.984389
0.575561
1.00805
1.03007
1.00532
1.02141
1.0101
1.03138
1.0044
1.00136
0.79916