/*--------------------------------*- C++ -*----------------------------------*\
| =========                 |                                                 |
| \\      /  F ield         | OpenFOAM: The Open Source CFD Toolbox           |
|  \\    /   O peration     | Version:  5.0                                   |
|   \\  /    A nd           | Web:      www.OpenFOAM.org                      |
|    \\/     M anipulation  |                                                 |
\*---------------------------------------------------------------------------*/
FoamFile
{
    version     2.0;
    format      ascii;
    class       volScalarField;
    location    "2.6";
    object      p;
}
// * * * * * * * * * * * * * * * * * * * * * * * * * * * * * * * * * * * * * //

dimensions      [1 -1 -2 0 0 0 0];

internalField   nonuniform List<scalar> 
9340
(
93.5179
97.1608
155.498
100.004
102.621
97.2203
95.0098
91.9886
89.7273
87.3271
84.886
82.4257
79.964
77.533
75.1064
72.7043
70.3165
67.96
65.6192
63.3133
61.011
58.7276
56.4743
54.211
51.9723
49.7557
47.5451
45.331
43.1365
40.9662
38.7933
36.6455
34.5265
32.4015
30.2647
28.1621
26.1139
24.099
22.0937
20.0829
18.0998
16.1611
14.2227
12.2606
10.3264
8.43835
6.55371
4.66347
2.79313
0.93389
88.5407
93.804
89.579
6.09477
93.004
93.747
94.2026
91.8445
89.6259
87.2833
84.8649
82.4139
79.9788
77.538
75.1046
72.7103
70.3161
67.9774
65.6564
63.3205
61.0164
58.7292
56.4629
54.2108
51.9648
49.7387
47.5325
45.3322
43.1432
40.9692
38.8084
36.659
34.5233
32.3885
30.2662
28.1679
26.1082
24.084
22.0773
20.0826
18.1065
16.167
14.2322
12.2809
10.3347
8.43084
6.54212
4.66109
2.79386
0.933776
92.3445
106.496
98.0713
153.98
108.45
97.0726
96.0893
92.6775
89.6989
87.3608
84.9041
82.4258
79.9712
77.5404
75.112
72.7004
70.3296
67.9945
65.6631
63.3173
61.0181
58.7329
56.4577
54.2081
51.9667
49.7364
47.5236
45.3391
43.1547
40.9725
38.8133
36.6579
34.5018
32.3779
30.2752
28.183
26.1081
24.0741
22.073
20.0827
18.1155
16.1643
14.2192
12.2789
10.3443
8.42855
6.54019
4.66425
2.79887
0.934198
93.703
97.8059
97.1473
101.199
101.174
98.9313
98.0484
93.4538
89.9477
87.5353
84.9943
82.5057
80.0054
77.5514
75.1248
72.7138
70.3352
67.9911
65.6428
63.32
61.0275
58.7325
56.4619
54.2109
51.9806
49.7478
47.5234
45.3449
43.1486
40.9624
38.8137
36.654
34.4976
32.3739
30.2838
28.2004
26.1152
24.0714
22.0752
20.0942
18.1213
16.1564
14.2033
12.2756
10.3562
8.43311
6.54102
4.67155
2.80499
0.92934
264.71
82.9036
91.2933
98.6104
99.8549
97.5172
98.3028
93.5726
90.0984
87.6492
85.0637
82.5329
80.0372
77.568
75.1456
72.7302
70.352
67.9859
65.624
63.3192
61.0301
58.731
56.4655
54.2124
51.9879
49.7612
47.533
45.3401
43.1369
40.9542
38.8072
36.6448
34.4949
32.3726
30.285
28.2097
26.125
24.0754
22.0781
20.1005
18.1187
16.1354
14.1826
12.2655
10.3532
8.43513
6.54767
4.68645
2.81312
0.927334
93.0374
127.975
97.9698
102.722
102.096
98.6839
98.1834
93.7453
90.2049
87.7256
85.1138
82.5654
80.0599
77.5865
75.1609
72.7424
70.3639
67.9908
65.6232
63.318
61.0283
58.7307
56.4683
54.224
51.9938
49.7782
47.5444
45.3355
43.1304
40.947
38.7984
36.638
34.4865
32.374
30.2876
28.2116
26.1359
24.0869
22.0822
20.1007
18.1132
16.1246
14.167
12.2506
10.345
8.4381
6.56348
4.7099
2.8239
0.930574
120.619
107.585
108.181
100.356
125.162
99.4552
98.6341
93.9664
90.2744
87.7254
85.1342
82.5821
80.0863
77.6063
75.1631
72.745
70.3645
67.9999
65.6277
63.3075
61.0204
58.7308
56.4669
54.2324
52
49.7742
47.5498
45.331
43.1304
40.9562
38.7977
36.6272
34.4807
32.3814
30.2921
28.2065
26.1415
24.1003
22.0843
20.096
18.1069
16.1207
14.1659
12.2495
10.3406
8.43918
6.56891
4.70881
2.82717
0.938803
103.437
106.095
97.2884
93.4664
95.2578
98.7325
98.2377
93.971
90.2636
87.7027
85.109
82.5655
80.0752
77.5981
75.137
72.7447
70.3537
67.987
65.6388
63.3001
61.0099
58.7262
56.4656
54.234
51.9998
49.7798
47.5514
45.3285
43.1415
40.962
38.7932
36.6245
34.4849
32.3881
30.29
28.1958
26.1407
24.111
22.0884
20.0842
18.1003
16.126
14.1761
12.2532
10.3397
8.44118
6.56734
4.69778
2.82504
0.943623
96.7745
101.32
100.518
95.6127
105.254
98.9688
98.1133
92.9382
90.2527
87.6349
85.0693
82.5415
80.0479
77.5778
75.1379
72.737
70.3318
67.9718
65.6357
63.3083
61.0021
58.7185
56.4698
54.2292
52.0022
49.7796
47.5485
45.3278
43.135
40.9612
38.781
36.6249
34.5046
32.3944
30.2825
28.184
26.1343
24.1138
22.0924
20.0844
18.0979
16.1366
14.1924
12.2529
10.3347
8.44193
6.55999
4.68655
2.8137
0.945181
95.489
95.3141
100.135
98.7181
101.645
103.664
97.2213
92.6076
90.0479
87.4891
84.9805
82.4761
79.9903
77.5503
75.121
72.7147
70.3224
67.964
65.6268
63.3116
61.0029
58.7199
56.4726
54.218
51.9906
49.7781
47.55
45.3297
43.133
40.9629
38.7845
36.6316
34.5196
32.3996
30.2716
28.1708
26.1245
24.1094
22.0951
20.0829
18.0989
16.1514
14.2098
12.2551
10.3282
8.44384
6.55994
4.67485
2.80165
0.933751
93.0814
94.4517
153.622
99.3684
97.0556
97.635
94.9984
91.989
89.7272
87.3271
84.8861
82.4257
79.9638
77.533
75.1063
72.7041
70.3165
67.96
65.6194
63.313
61.0109
58.7277
56.4743
54.2109
51.9723
49.7557
47.545
45.3309
43.1364
40.9659
38.7933
36.6456
34.5266
32.4014
30.2647
28.1621
26.1139
24.0991
22.0937
20.0828
18.0997
16.1612
14.2229
12.2607
10.3264
8.4384
6.55362
4.6634
2.79308
0.933963
97.6731
91.8743
90.4291
-30.739
88.6877
93.3916
94.1653
91.8444
89.6257
87.2833
84.8648
82.4139
79.9787
77.5379
75.1046
72.7101
70.316
67.9775
65.6563
63.3204
61.0165
58.7292
56.4628
54.2108
51.9648
49.7387
47.5324
45.3322
43.1432
40.9692
38.8089
36.6591
34.5233
32.3886
30.2662
28.1678
26.1082
24.084
22.0771
20.0822
18.1065
16.1671
14.2321
12.2807
10.3347
8.43087
6.542
4.66115
2.79399
0.933727
100.325
112.363
102.875
172.23
104.698
96.8776
96.1206
92.6772
89.7002
87.3606
84.9041
82.4258
79.9711
77.5404
75.1119
72.7004
70.3297
67.9943
65.6632
63.3172
61.0179
58.7328
56.4575
54.208
51.9667
49.7362
47.5236
45.339
43.1547
40.9725
38.813
36.6578
34.5019
32.3779
30.2754
28.183
26.1081
24.0741
22.073
20.0825
18.1156
16.1644
14.2192
12.2788
10.3443
8.42851
6.54013
4.66429
2.79887
0.934184
93.2425
95.5737
96.2102
103.06
101.07
98.9861
98.0501
93.4516
89.9481
87.5346
84.9944
82.5056
80.0053
77.5514
75.1248
72.7138
70.3352
67.991
65.6427
63.3199
61.0276
58.7325
56.4619
54.211
51.9805
49.7475
47.5235
45.345
43.1487
40.9623
38.8135
36.654
34.4976
32.3739
30.2839
28.2001
26.1151
24.0714
22.0752
20.0942
18.1213
16.1564
14.2032
12.2757
10.3563
8.43318
6.54092
4.67155
2.80499
0.929209
144.185
124.804
93.3062
98.2229
99.6504
97.3556
98.2776
93.5618
90.0987
87.6492
85.0638
82.5329
80.037
77.568
75.1456
72.7303
70.352
67.9859
65.624
63.3193
61.0301
58.7307
56.4655
54.2124
51.9877
49.7612
47.5331
45.3401
43.1364
40.9541
38.8073
36.6448
34.4949
32.3725
30.285
28.2097
26.1251
24.0753
22.0782
20.1006
18.1186
16.1355
14.1825
12.2654
10.3533
8.43512
6.54759
4.68639
2.81301
0.927378
88.3788
98.051
100.321
104.453
102.672
98.368
98.1434
93.7344
90.2051
87.7256
85.1138
82.5652
80.06
77.5865
75.1608
72.7423
70.3639
67.9909
65.623
63.3178
61.0286
58.7303
56.4682
54.2241
51.994
49.7783
47.5444
45.3354
43.1303
40.9471
38.7984
36.6375
34.4863
32.3739
30.2876
28.2115
26.136
24.0869
22.0822
20.1006
18.1132
16.1245
14.167
12.2506
10.345
8.43808
6.56346
4.70998
2.82362
0.930547
103.417
103.739
106.2
97.0897
100.155
99.3774
98.6307
93.9579
90.2749
87.7252
85.1342
82.5822
80.0863
77.6063
75.1631
72.7449
70.3645
67.9998
65.6276
63.3075
61.0204
58.7307
56.4669
54.2323
51.9997
49.7741
47.5497
45.331
43.1304
40.9561
38.7979
36.6271
34.4806
32.3814
30.2921
28.2064
26.1415
24.1003
22.0843
20.096
18.1068
16.1205
14.166
12.2495
10.3405
8.43916
6.56925
4.70889
2.82711
0.938926
102.553
104.576
107.852
95.1249
97.246
98.4848
98.2054
93.9681
90.2644
87.7025
85.109
82.5654
80.0752
77.598
75.137
72.7447
70.354
67.9869
65.6392
63.3001
61.0098
58.7262
56.4657
54.234
51.9998
49.7798
47.5516
45.3282
43.1413
40.962
38.7931
36.6245
34.4849
32.3881
30.29
28.1958
26.1407
24.1109
22.0883
20.0842
18.1002
16.126
14.1761
12.2532
10.3396
8.44116
6.56733
4.69776
2.82498
0.943714
95.8776
94.5924
98.6338
95.0566
108.049
99.0961
98.1052
92.9388
90.2528
87.6349
85.0692
82.5415
80.0479
77.5778
75.1379
72.7372
70.332
67.9717
65.6357
63.3084
61.0021
58.7184
56.4699
54.2292
52.0021
49.7796
47.5484
45.3277
43.1351
40.9613
38.7811
36.6249
34.505
32.3945
30.2822
28.184
26.1344
24.1137
22.0923
20.0843
18.098
16.1366
14.1923
12.2528
10.3347
8.44188
6.55995
4.68652
2.81373
0.945174
95.664
95.4297
105.849
100.934
103.57
100.352
97.216
92.6081
90.0479
87.4891
84.9806
82.4761
79.9902
77.5504
75.121
72.715
70.3224
67.964
65.6269
63.3114
61.0028
58.7199
56.4726
54.218
51.9907
49.7781
47.55
45.3297
43.1331
40.9629
38.7843
36.6316
34.5197
32.3993
30.2715
28.171
26.1246
24.1094
22.095
20.0829
18.0989
16.1514
14.2098
12.255
10.3281
8.44385
6.5597
4.67485
2.80175
0.933743
93.4142
94.0916
98.9754
110.12
95.0757
95.9939
95.0106
91.989
89.7272
87.327
84.8861
82.4257
79.9635
77.5332
75.1063
72.7038
70.3164
67.9602
65.6194
63.3127
61.0107
58.7281
56.4741
54.2107
51.9723
49.7557
47.5448
45.3309
43.1361
40.9658
38.7933
36.6456
34.5265
32.4012
30.2646
28.162
26.1138
24.0991
22.0937
20.0827
18.0995
16.1612
14.223
12.2608
10.3264
8.43842
6.55348
4.66329
2.79298
0.933929
91.3843
92.0361
117.956
91.1547
93.9445
92.9381
94.1791
91.844
89.6257
87.283
84.8648
82.4138
79.9786
77.5379
75.1045
72.7099
70.316
67.9776
65.656
63.3203
61.0167
58.7293
56.4622
54.2108
51.9648
49.7386
47.5323
45.3321
43.1434
40.9692
38.8089
36.659
34.5231
32.3885
30.2661
28.1677
26.1081
24.0845
22.0769
20.0818
18.1065
16.1672
14.2319
12.28
10.3348
8.43088
6.54185
4.66109
2.79396
0.933536
104.987
106.305
102.853
187.197
99.3216
96.853
96.1098
92.6784
89.7001
87.3607
84.904
82.4257
79.971
77.5403
75.1119
72.7003
70.3296
67.994
65.6631
63.3171
61.0176
58.7327
56.4574
54.2086
51.9667
49.7361
47.5236
45.339
43.1547
40.9725
38.8129
36.6575
34.502
32.378
30.2754
28.183
26.1079
24.0741
22.0729
20.0824
18.1156
16.1645
14.2192
12.2785
10.3445
8.42841
6.54002
4.66426
2.79885
0.934068
92.8144
98.0982
95.7799
105.662
101.817
99.0861
98.0496
93.454
89.9476
87.5345
84.9942
82.5058
80.0053
77.5513
75.1247
72.7137
70.3352
67.9907
65.6427
63.3197
61.0276
58.7324
56.4619
54.2111
51.9804
49.7474
47.5236
45.3449
43.1487
40.9622
38.8134
36.6539
34.4975
32.3738
30.2839
28.2
26.115
24.0715
22.0753
20.0941
18.1212
16.1564
14.2029
12.2759
10.3564
8.43324
6.54083
4.67154
2.80486
0.928885
142.071
147.565
104.609
112.684
100.112
100.451
98.2944
93.5661
90.098
87.6495
85.0637
82.5324
80.0367
77.5679
75.1457
72.7302
70.3519
67.9858
65.6239
63.3193
61.0302
58.73
56.4655
54.2124
51.9874
49.7612
47.5332
45.34
43.1362
40.9539
38.8073
36.6447
34.4941
32.3725
30.285
28.2096
26.1254
24.0753
22.0781
20.1008
18.1185
16.1355
14.1825
12.2653
10.3533
8.43505
6.54773
4.68628
2.81295
0.927288
87.621
98.3959
99.6852
101.525
102.11
98.4023
98.1288
93.7381
90.2044
87.7258
85.1135
82.5651
80.0605
77.5864
75.1604
72.7421
70.3638
67.991
65.6229
63.3177
61.0285
58.7298
56.4681
54.224
51.994
49.7782
47.5442
45.3352
43.1303
40.9471
38.7986
36.6373
34.4862
32.3748
30.2877
28.2114
26.136
24.0868
22.0821
20.1006
18.1131
16.1243
14.1669
12.2506
10.3448
8.43801
6.56348
4.70998
2.82319
0.930506
104.001
111.932
105.155
94.7202
101.83
99.0938
98.5794
93.9595
90.2744
87.7253
85.1341
82.5821
80.0862
77.6062
75.163
72.7448
70.3644
67.9996
65.6275
63.3076
61.0204
58.7307
56.4668
54.2323
51.9995
49.774
47.5496
45.3313
43.1308
40.9561
38.7979
36.6269
34.4805
32.3813
30.292
28.2063
26.1414
24.1002
22.0842
20.0959
18.1067
16.1202
14.1659
12.2495
10.3404
8.43909
6.56928
4.70873
2.82651
0.938886
117.578
92.4682
110.878
113.338
98.7285
99.5183
98.2241
93.9681
90.2639
87.7026
85.1089
82.5654
80.0751
77.598
75.1368
72.7446
70.3542
67.9866
65.6393
63.3001
61.0098
58.7262
56.4659
54.2339
51.9998
49.7798
47.5515
45.3281
43.1413
40.962
38.793
36.6244
34.4849
32.388
30.2899
28.196
26.1407
24.1107
22.0883
20.0842
18.1001
16.126
14.1761
12.2532
10.3395
8.4411
6.56727
4.69772
2.82497
0.94373
93.8984
90.3994
95.922
99.7155
104.283
98.6406
98.1117
92.9383
90.2532
87.6348
85.0692
82.5414
80.0478
77.5777
75.1378
72.7374
70.3321
67.9715
65.6358
63.3084
61.002
58.7183
56.4698
54.2291
52.0017
49.7795
47.548
45.3276
43.1354
40.9614
38.7809
36.6248
34.5051
32.3945
30.282
28.184
26.1344
24.1135
22.0922
20.0842
18.098
16.1366
14.1922
12.2526
10.3346
8.44179
6.55981
4.68645
2.81384
0.945089
95.3025
95.6458
100.077
102.7
93.4555
99.107
97.2249
92.6079
90.0478
87.4891
84.9806
82.4759
79.9899
77.5504
75.1209
72.7152
70.3223
67.9635
65.6269
63.3113
61.0027
58.7197
56.4725
54.218
51.9907
49.778
47.5499
45.3298
43.1333
40.9628
38.7839
36.6317
34.5201
32.3988
30.2713
28.171
26.1246
24.1093
22.095
20.0829
18.0988
16.1513
14.2097
12.2548
10.3281
8.4438
6.55953
4.6746
2.80173
0.933669
96.6338
94.5187
94.7487
97.8852
96.51
94.2817
94.6064
94.9557
95.7011
95.8906
93.3879
94.8491
95.6525
95.9035
96.6095
98.6971
97.8825
97.0014
96.6143
98.6723
97.8709
98.1317
98.6902
98.4831
98.9617
98.1111
98.7187
98.5076
98.325
98.4272
98.0269
97.4569
98.3593
98.4495
97.943
98.2613
99.2835
98.475
98.9894
98.2319
99.4305
98.4651
98.6769
98.3943
98.4271
99.3742
98.9314
98.5786
98.3989
98.3612
99.7766
98.7834
98.4919
98.3903
99.7447
98.7881
98.6023
98.5884
98.6765
98.9015
98.6116
98.2358
98.7053
98.3879
96.3405
97.2134
98.4587
98.3038
97.2719
97.0414
96.5674
94.3098
94.6075
95.9051
96.4404
93.608
94.6369
94.8437
95.6257
95.9093
93.0309
94.819
95.6908
95.9266
96.6121
98.7808
97.9462
96.8469
96.6078
98.9031
97.8549
98.1566
98.6299
98.3328
98.93
98.1291
98.7404
98.4226
98.3116
98.417
98.051
100.593
98.3434
98.4892
98.0112
98.22
99.3539
98.512
98.0484
98.2427
99.1042
98.4671
98.8598
98.5629
98.3686
99.173
98.632
98.3886
98.3787
98.3372
99.7984
98.79
99.0839
98.3619
100.048
98.7911
98.6109
98.6114
98.7088
98.8476
98.6101
99.4862
98.709
98.2909
97.4941
97.037
99.1332
98.3222
99.8784
97.1048
96.4077
93.6232
94.6294
96.7164
96.5696
93.4918
94.7852
94.822
95.6065
95.925
93.7345
94.9437
96.1316
95.9013
96.6078
98.6515
97.9979
97.4449
96.6001
98.7811
97.9065
98.1971
98.8399
98.2845
98.9865
98.1308
98.7702
98.3576
98.4405
98.4826
98.0318
100.453
98.3172
98.5743
98.0005
98.2164
99.7725
98.4992
97.7921
98.2668
99.2765
98.475
98.6439
98.5598
98.3551
99.2155
98.5259
98.4867
98.3649
98.3833
100.011
98.7894
99.1554
98.3528
100.278
98.7792
98.6104
99.5404
98.7019
98.7405
98.6039
99.7673
98.6731
98.2987
99.6143
97.1247
109.865
98.3887
103.423
97.2296
96.8317
95.028
92.6906
107.379
97.5073
94.2757
93.9851
96.7473
97.2957
96.4023
97.4122
96.3824
96.744
97.2946
93.9488
94.2515
93.5567
95.0032
93.9563
94.2474
93.5664
92.3525
107.377
96.1973
96.614
91.7619
94.7804
95.9614
94.0993
93.8129
93.9492
93.3177
93.8158
94.0577
94.4128
93.4046
95.5787
93.5857
94.1647
93.4134
95.4653
93.5934
98.7513
100.019
98.8705
98.796
100.176
99.9168
98.8201
97.4259
96.6196
98.0214
97.0549
96.6113
97.9714
97.4416
93.6915
97.7028
94.4332
96.1214
93.7001
97.6747
94.4371
100.312
100.712
98.7994
101.657
100.215
101.276
98.9831
98.7992
98.8889
100.58
98.9579
98.6393
100.576
99.7254
94.7514
98.5864
95.3989
98.0557
94.7519
98.4366
95.3034
102.501
100.01
98.5882
99.6715
102.584
100.235
99.1221
98.0847
98.5646
98.5217
97.5114
98.563
98.5925
98.0865
95.6995
98.0525
96.0623
98.3555
95.6112
97.984
95.9707
108.351
103.217
98.5731
102.143
107.549
101.207
98.5143
98.1963
98.5318
99.2458
98.7064
98.5365
99.2229
98.2988
96.1469
98.3721
95.7727
98.2393
96.0677
98.3455
95.6798
102.074
102.558
99.129
101.199
101.175
100.166
99.6786
99.0471
98.8608
100.065
99.4481
98.8463
100.016
99.1019
95.5898
98.4021
95.3617
98.5841
95.5029
98.4045
95.3646
97.0428
101.53
99.9626
98.4127
97.0237
101.266
100.156
98.626
98.408
98.7701
98.558
98.3931
98.6087
98.7059
95.1995
98.4755
95.2646
98.2139
95.2041
98.5234
95.2762
97.3471
100.208
105.21
118.889
99.0157
100.399
101.129
99.4569
99.0364
101.66
99.063
98.8855
101.107
99.4737
95.2944
97.507
95.2011
98.1038
95.3022
97.3954
95.2112
104.403
104.594
119.824
102.161
104.605
102.924
103.997
99.5877
99.8362
105.282
106.373
100.31
104.439
99.6757
94.9746
95.9162
94.5399
97.2148
94.9845
95.9044
94.5503
96.9528
97.9148
91.604
94.1619
96.9349
94.501
91.4907
96.7717
97.2785
96.3057
98.5159
96.7663
96.1057
97.2594
93.9556
94.2418
93.5667
95.0047
93.9554
94.2319
93.5665
91.7393
93.1214
95.722
88.8211
96.6177
92.7204
95.3707
93.9677
93.8012
93.5949
93.6576
94.0581
93.8179
95.2056
93.4133
95.4512
93.5927
94.1832
93.4127
95.438
93.5929
97.2334
100.366
98.9112
99.9441
97.1996
101.882
99.1314
97.4064
96.5696
97.8525
96.9897
97.4414
96.5587
97.8704
93.6986
97.6649
94.4328
96.1104
93.6984
97.6562
94.4325
100.304
101.111
99.3689
101.112
100.641
99.3089
99.5672
98.734
99.9004
101.026
99.018
98.7855
98.9876
101.107
94.7506
98.4306
95.2997
98.0487
94.7517
98.4089
95.2973
102.569
100.229
98.7511
100.045
100.469
104.491
94.1166
98.0777
98.5712
98.9017
97.3074
98.0793
98.5717
98.9579
95.6023
98.1122
95.9608
98.3036
95.602
98.0548
95.9616
102.392
102.973
100.256
102.203
100.839
102.109
98.0848
98.3079
98.4972
98.7677
98.2494
98.2747
98.493
98.8246
96.0614
98.391
95.673
98.1274
96.0615
98.3868
95.6712
101.394
100.182
99.4037
101.147
100.008
101.475
99.4123
99.165
98.8965
99.741
99.6102
99.1343
98.8417
99.8776
95.4968
98.4047
95.3613
98.5388
95.4963
98.4049
95.3613
96.9905
101.751
100.062
96.9083
96.8326
101.66
100.847
98.6365
98.407
98.5359
98.4734
98.5338
98.4037
98.578
95.1996
98.5178
95.2743
98.2154
95.1998
98.4937
95.2734
102.625
100.89
108.619
102.438
101.243
104.84
108.756
99.5795
98.889
102.818
98.7659
99.5703
98.9016
102.909
95.2998
97.3909
95.211
98.1089
95.2995
97.3903
95.2109
104.356
98.7038
100.386
93.4885
103.547
98.7384
107.256
100.49
99.212
104.697
99.9619
99.7879
99.2652
103.73
94.9842
95.9033
94.5506
97.225
94.9839
95.9038
94.5506
93.9348
97.0167
93.1775
103.137
93.8567
94.4955
94.3342
96.8532
97.2077
97.7012
96.1878
96.8194
101.045
97.2
93.9566
94.2509
93.566
95.0106
93.9491
94.2502
93.5561
92.3275
97.4668
95.4429
98.2084
92.457
94.7872
101.023
94.2088
93.8329
94.018
93.7818
93.9652
93.8365
94.1
93.4122
95.4501
93.5946
94.2028
93.4027
95.5699
93.5874
97.3695
100.406
99.3099
99.2564
97.4635
100.422
99.0432
97.3902
96.7324
97.9493
96.8501
97.4037
97.2869
98.1327
93.7002
97.6679
94.4369
96.0773
93.6916
97.6828
94.433
100.404
99.6761
98.5954
101.478
103.167
99.8981
98.7109
98.6385
98.4371
101.001
98.9303
98.6507
98.437
100.976
94.7538
98.4118
95.3045
98.0464
94.753
98.5157
95.3902
101.408
103.032
97.0509
100.913
100.322
110.601
98.4315
98.0147
98.605
94.6053
100.476
98.03
98.6432
95.03
95.6085
98.1365
95.9744
98.307
95.7037
98.0767
96.0538
99.7017
101.796
98.1534
98.3952
100.554
103.093
99.7615
99.0126
98.4883
101.981
107.693
98.6556
98.4844
103.689
96.0699
98.436
95.6788
98.1538
96.152
98.4399
95.7706
99.9133
98.3946
98.9541
97.9797
99.8243
100.483
99.2666
99.0086
98.8583
99.5274
99.1071
99.0001
98.8931
99.5081
95.4985
98.4081
95.3638
98.5157
95.5887
98.4037
95.3615
97.2982
101.791
100.421
99.2497
97.4664
104.284
101.077
98.4383
98.4066
99.4205
99.0049
98.409
98.3899
99.4158
95.204
98.4797
95.2752
98.2453
95.1991
98.4853
95.2629
103.317
99.0993
98.8341
103.891
102.054
97.8451
100.165
99.5311
98.8999
100.846
98.7346
99.5317
99.0017
100.635
95.3017
97.3969
95.2113
98.1159
95.2937
97.5051
95.2014
102.866
98.4783
102.037
98.6235
109.729
99.411
104.839
100.099
99.4071
102.83
123.074
99.8801
99.4384
102.478
94.984
95.9081
94.5505
97.226
94.974
95.9141
94.5402
96.4015
96.3307
95.9361
96.56
95.8642
96.3805
96.3204
95.0736
96.0246
94.1101
94.5061
95.8942
94.1055
95.0881
94.7578
95.094
94.3965
94.6861
94.9894
94.4223
94.8038
96.7497
97.8669
97.2855
96.3392
96.3663
96.7564
97.2901
96.4149
96.5139
96.304
95.8152
95.8244
96.4226
96.3105
95.0443
94.6241
95.6554
94.1068
95.7823
94.1027
95.0851
94.7644
94.6299
94.9901
94.4402
94.972
94.4379
94.8078
94.2029
94.2065
94.7211
94.8389
94.1765
94.744
94.1907
94.8678
94.8924
95.6444
95.7065
94.9311
95.6404
94.8467
94.6962
95.1778
95.5356
95.8912
95.189
95.538
94.6899
94.1179
93.3678
93.793
93.5474
93.8058
96.7662
94.0623
94.2052
94.8398
94.2014
94.7604
94.1878
94.7578
94.1982
94.8223
95.6454
94.9905
95.5896
94.9525
95.7008
94.7967
94.6947
95.898
95.218
95.5362
95.2064
95.5356
94.6919
97.2192
96.4533
97.1961
96.6172
96.4541
97.2055
97.2316
97.7914
98.0666
98.3298
98.7047
98.0323
98.3367
97.8175
97.941
97.6541
98.1214
97.8633
97.6119
98.1452
98.1363
97.4606
97.0359
96.6132
97.8947
96.6145
97.9739
97.4242
97.2325
96.6155
96.4706
97.1969
96.4963
97.2047
97.2201
97.7853
98.6788
98.0261
98.3231
98.0311
98.34
97.8086
97.8609
98.006
97.5855
98.1297
97.6398
98.15
97.9791
98.7719
98.3387
98.3294
98.1551
98.3104
98.3355
98.6019
98.5623
98.7538
98.6644
98.6935
98.7613
98.631
98.8768
98.4495
98.3536
98.3964
98.5083
98.3275
98.352
98.5608
100.778
98.9084
98.6467
100.738
98.6426
100.538
99.3961
98.6315
98.1616
98.4653
98.3421
98.3989
98.3445
98.5792
98.7271
98.7123
98.9384
98.5804
98.881
98.6201
98.6427
98.453
98.498
98.2803
98.382
98.4323
98.3565
98.4506
98.2187
98.3392
98.2465
98.3225
98.3078
98.246
98.4366
97.8997
98.7065
98.0476
98.4056
98.661
97.9723
97.906
98.0845
98.0468
98.2336
98.0151
98.0312
98.2412
98.2328
98.0932
97.4956
98.5802
98.4641
98.5664
98.463
98.0801
98.2081
98.4073
98.3088
98.1826
98.3078
98.3844
98.2181
97.8639
98.4501
98.7186
97.9818
98.6002
97.9761
97.8559
98.0818
98.1224
98.0324
98.2179
98.2179
98.3324
98.126
98.2933
98.4227
98.1832
98.2324
98.407
98.183
98.4114
98.9685
104.976
98.6916
99.2496
100.694
98.6984
98.962
98.6133
98.4699
98.6578
98.4836
98.3948
98.6466
98.6265
98.1821
98.6303
98.4869
99.3363
98.6327
99.0436
98.1769
98.2923
98.3134
98.4038
98.12
98.4271
98.3212
98.2906
98.9607
99.3852
101.145
98.6788
101.244
98.677
98.9531
98.652
98.4706
98.406
98.6459
98.3915
98.6435
98.585
98.6038
99.0604
98.4478
98.7623
98.9565
98.4517
98.5963
98.6277
98.949
98.5156
98.3515
98.9412
98.4623
98.6613
98.5945
98.5463
98.4602
98.379
98.5609
98.4586
98.5897
99.0401
99.4312
98.8889
99.7881
98.8505
99.7718
99.2109
98.5836
98.5788
98.8625
98.4353
99.0235
98.437
98.5821
98.6173
98.349
99.2103
98.4888
98.9401
98.4789
98.6209
98.5972
98.3736
98.5552
98.4473
98.6079
98.4521
98.5901
100.175
98.5039
98.6682
98.3605
98.5359
98.4764
99.2803
98.9318
99.5398
99.3709
99.7748
99.3982
99.3435
99.7079
100.023
98.5666
98.5376
98.7875
98.5598
98.5023
100.982
98.5712
98.5299
98.3973
98.5306
98.3922
98.5751
98.5702
101.833
98.3802
98.4679
98.5724
98.4855
98.403
102.734
98.9162
99.7795
99.2606
99.3155
99.3232
99.3369
99.0174
100.091
98.7856
98.5528
98.3594
98.5528
98.4703
100.055
99.1989
98.804
98.8614
98.6116
98.8045
98.8739
99.1964
98.215
91.1218
99.497
98.6245
93.3128
99.4974
98.0859
98.4147
98.0783
99.2668
98.6891
98.1007
99.2786
98.4088
99.449
98.9886
98.8915
100.99
98.9135
100.955
99.6057
99.1997
98.6116
98.7986
98.8851
98.8003
98.8807
99.1938
98.6003
99.1061
102.979
99.4474
110.496
99.4799
97.7476
98.4119
98.6994
98.0939
99.2796
98.1071
99.2792
98.4114
98.6552
98.811
98.5288
98.352
98.819
98.5034
98.6383
99.2402
107.982
98.0739
97.1728
113.496
98.9305
98.0831
97.982
98.3026
97.5055
97.0799
98.2104
97.6909
97.5967
99.5019
98.7637
99.1312
104.873
99.1496
104.018
99.6754
98.6633
98.3231
98.8399
98.5063
98.8294
98.4873
98.6453
98.0767
97.6034
104.998
98.1442
104.346
98.1978
98.114
98.0297
97.0434
97.9781
97.6441
98.2075
97.3039
97.6164
96.4494
96.3306
95.8464
96.5981
96.4402
95.8547
96.3217
95.034
95.4473
94.1094
93.9534
95.0418
95.5815
94.085
94.7859
94.9669
94.426
94.6236
94.8095
94.9978
94.4339
96.8074
98.6142
97.22
96.6367
95.8134
96.8027
97.2373
96.5161
96.5795
96.2433
95.8638
95.8736
96.515
96.3179
95.0282
93.7502
94.9817
94.0502
95.2512
94.092
95.1778
94.7226
94.6515
95.3422
94.4521
94.9415
94.4533
95.3021
94.1909
94.2045
94.7592
94.8335
94.1928
94.2055
94.7535
94.6543
94.8991
95.5389
95.6496
94.7183
95.0709
95.5439
94.697
95.2256
95.5419
95.9169
94.6925
95.2299
95.5482
93.9233
93.217
93.7982
94.5282
93.8103
94.6412
93.9386
94.188
94.8244
94.2057
94.734
94.2045
94.7453
94.1872
94.8002
95.6971
94.5631
95.6055
94.6023
95.5653
94.7831
94.7036
95.9241
95.2564
95.5502
95.25
95.5523
94.7096
97.1909
96.4454
97.1921
96.6093
97.1645
96.4496
97.1898
97.7954
97.9991
98.3333
98.7272
97.8136
98.0042
98.3491
97.9067
97.5896
98.1177
97.8519
98.0217
97.6012
98.1084
97.3972
96.8608
96.4444
97.9312
96.5237
97.8925
97.3857
97.1971
96.6083
96.4
97.1799
96.4278
97.1849
97.1724
97.7716
98.7486
97.9968
98.3134
98.0001
98.3184
97.7871
97.9156
97.929
97.5733
98.1212
97.6578
98.107
97.9218
98.575
98.2741
98.3792
98.1305
98.5765
98.2315
98.337
98.6638
98.9526
98.5988
98.6991
98.6592
98.9751
98.5853
98.4712
98.3272
98.3717
98.3351
98.4571
98.3267
98.3735
98.732
98.9465
98.5497
101.063
98.8277
101.086
98.7278
98.5716
98.1462
98.2365
98.2848
98.1988
98.3075
98.5752
98.6615
98.8636
98.9983
98.5818
98.9613
98.5929
98.6613
98.4694
98.5199
98.3603
98.4012
98.3173
98.4126
98.5162
98.2026
98.3195
98.2058
98.3068
98.2124
98.2986
98.1689
97.8302
98.6819
97.9985
98.4447
97.8442
98.498
97.9565
98.0946
98.0373
98.2269
97.9742
98.0982
97.9706
98.214
98.0845
108.968
98.5839
96.8038
98.5655
107.689
98.0461
98.2075
98.3163
98.3234
98.1727
98.3053
98.1916
98.1813
97.801
98.4357
98.8535
97.9026
98.8304
97.9074
97.7784
98.0814
97.9607
97.9673
98.2326
98.0141
98.2154
98.0788
98.2905
98.398
98.1128
98.2171
98.2884
98.3871
98.1664
99.1848
100.99
98.6912
99.3323
99.1154
100.84
98.6896
98.599
98.391
98.6462
98.4907
98.5892
98.3879
98.6306
98.3033
98.0956
98.4921
100.252
98.4922
100.797
98.086
98.2791
98.2175
98.3749
98.1382
98.3778
98.1074
98.3792
99.1729
99.2047
100.57
98.6917
100.646
98.6869
98.8448
98.5924
98.4641
98.3867
98.62
98.3884
98.628
98.6023
98.6132
98.7185
98.4619
98.6319
98.6021
98.701
98.4408
98.6266
98.7777
98.4926
98.3154
98.6198
99.0316
98.511
98.5916
98.5735
98.4455
98.367
98.6123
98.5562
98.4451
99.1515
99.182
98.8854
99.6007
98.8402
99.6504
99.0839
98.6002
98.5233
98.6415
98.4384
98.8594
98.4426
98.6055
98.6218
98.3568
98.7646
98.4922
99.1204
98.4787
98.7252
98.5973
98.3672
98.5289
98.4487
98.5818
98.4474
98.5954
97.6017
98.4491
98.3957
98.3283
103.215
98.4324
98.4265
99.0336
99.3845
99.2958
99.8641
99.0351
99.5358
99.2736
100.089
98.5562
99.6135
98.783
100.06
98.5521
100.606
98.4168
101.243
98.3986
103.914
98.3997
100.486
98.4199
97.6694
98.3473
98.4168
98.3765
98.4217
98.3743
97.6887
99.0467
100.859
99.8051
99.2811
99.8594
99.2609
99.0497
99.9931
98.789
98.5518
99.9612
98.5535
99.8114
99.9925
99.1959
98.7994
98.8864
98.6096
99.19
98.8038
98.8859
98.472
105.579
99.4403
100.705
98.0169
103.45
99.4732
98.4052
98.0934
99.2783
98.7128
98.4071
98.0982
99.2737
99.5409
100.948
98.9076
98.8399
98.9069
98.8942
99.5321
99.2
98.6092
98.806
98.8944
98.8058
98.8908
99.2058
97.9139
99.2715
102.518
99.4426
102.541
99.4449
98.4413
98.4011
98.7135
98.1227
99.2745
98.1102
99.2717
98.3919
98.602
98.8503
98.4898
98.301
98.4807
98.8615
98.3775
98.6018
97.9756
98.1832
98.2802
98.865
98.3415
98.2347
97.3387
98.5136
97.6624
97.0698
98.0166
98.0694
97.645
99.7559
99.6361
99.3824
103.2
99.3461
103.188
99.8877
99.0491
98.327
98.8667
98.6608
98.8663
99.2211
98.8598
98.6982
97.9799
98.198
98.3809
97.7005
98.6765
98.3022
97.4065
97.0815
97.9843
97.6602
97.9981
97.4254
97.6448
96.5202
96.2842
95.804
96.5077
96.4742
95.7827
96.358
94.9367
94.824
94.0535
94.1944
94.9182
94.8077
94.0649
95.0184
94.9213
94.4667
94.6693
94.8831
95.1545
94.4458
96.799
96.2054
97.2044
98.2891
94.8158
96.8364
97.2037
96.4999
96.5419
96.3062
95.9035
95.8358
96.4797
96.3328
94.946
93.507
95.1308
94.0721
96.0761
94.0702
94.943
94.7737
94.7159
95.046
94.4079
94.9729
94.4248
94.8247
94.1988
94.206
94.7244
94.8327
94.189
94.2
94.7243
94.6978
94.7573
95.6253
95.4916
94.759
94.7346
95.6297
94.7248
95.2525
95.5481
95.9204
94.7146
95.2426
95.5567
94.1492
94.3867
93.868
94.9902
93.8701
94.2687
94.1843
94.2058
94.838
94.1921
94.7165
94.1802
94.7205
94.2
94.6529
95.4676
95.1305
95.6217
94.4482
95.629
94.847
94.7328
95.911
95.2011
95.5622
95.2232
95.5613
94.7318
97.178
96.4024
97.1811
96.6076
97.1398
96.3918
97.1829
97.7325
97.9899
98.3209
98.6552
97.7772
97.9844
98.3083
97.8962
97.5816
98.1776
97.8905
97.9002
97.5814
98.1118
97.3898
97.9816
96.6852
98.1122
96.7982
98.4423
97.3775
97.26
96.6083
96.4075
97.1772
96.3914
97.1857
97.2221
97.753
98.6508
98.0153
98.3121
97.9772
98.3059
97.8369
97.94
97.8842
97.6161
98.0878
97.5944
98.0903
97.9289
98.5905
98.2666
98.336
98.1323
98.5858
98.2868
98.2993
98.622
99.0005
98.5847
98.7443
98.6867
98.9375
98.5725
98.5215
98.3783
98.4158
98.3309
98.5219
98.3341
98.4183
98.6324
98.9933
98.3484
104.828
98.3495
101.053
98.7743
98.5971
98.1306
98.289
98.3711
98.2897
98.4184
98.5992
98.6209
98.7538
99.2265
98.6011
98.8948
98.5758
98.8188
98.5134
98.386
98.3202
98.4388
98.3218
98.4254
98.5671
98.1728
98.3303
98.188
98.3091
98.1748
98.3415
98.1796
97.7553
98.7954
97.9075
98.5034
97.7651
98.8585
97.9427
98.078
98.0209
98.2264
97.99
98.0788
97.9892
98.2414
98.0163
100.473
98.6382
95.104
98.6256
95.0893
98.0342
98.169
98.3008
98.3523
98.2117
98.3462
98.1801
98.2899
97.7573
98.4897
99.0221
98.1461
98.9376
97.9925
97.7505
98.1378
97.9939
98.0434
98.2452
97.9915
98.2507
98.109
98.3014
98.368
98.1725
98.2679
98.308
98.3605
98.1368
98.6906
106.128
98.6888
99.2909
100.518
97.5275
98.6875
98.5872
98.3837
98.6163
98.4846
98.5898
98.3921
98.6287
99.2531
98.3338
98.5078
100.772
98.5086
104.042
98.8795
98.3453
98.2504
98.3679
98.1513
98.358
98.1408
98.321
98.6811
99.2914
98.3385
98.7415
97.9658
98.6914
99.0807
98.5954
98.474
98.4288
98.627
98.4029
98.6266
98.6163
98.6368
98.5915
98.441
98.5644
98.6162
98.5651
98.4736
98.6325
98.6657
98.527
98.4389
98.6426
98.6714
98.513
98.5837
98.5693
98.451
98.3714
98.6028
98.5129
98.4468
98.8391
99.1058
98.9247
99.5796
98.8504
99.5729
98.8556
98.7241
98.7558
98.5986
98.4568
98.6201
98.4537
98.7043
98.6237
98.4994
98.743
98.5784
98.7481
98.5154
98.6321
98.583
98.3675
98.5461
98.4512
98.5191
98.4478
98.6026
97.2742
98.4273
98.309
98.3711
98.8764
98.4175
98.2945
99.0309
99.7912
99.5897
99.8839
99.0066
99.7812
99.2273
100.116
98.5541
99.3247
98.7854
100.178
98.5556
99.2732
98.6034
99.4683
98.4182
99.6561
98.3786
99.874
98.5449
98.0093
98.3539
98.4075
98.3448
98.403
98.3553