/*--------------------------------*- C++ -*----------------------------------*\
| =========                 |                                                 |
| \\      /  F ield         | OpenFOAM: The Open Source CFD Toolbox           |
|  \\    /   O peration     | Version:  5.0                                   |
|   \\  /    A nd           | Web:      www.OpenFOAM.org                      |
|    \\/     M anipulation  |                                                 |
\*---------------------------------------------------------------------------*/
FoamFile
{
    version     2.0;
    format      ascii;
    class       surfaceScalarField;
    location    "2.6";
    object      phi;
}
// * * * * * * * * * * * * * * * * * * * * * * * * * * * * * * * * * * * * * //

dimensions      [0 3 -1 0 0 0 0];

internalField   nonuniform List<scalar> 
27952
(
1.55123e-09
9.82169e-10
-6.77109e-09
3.24051e-09
4.2481e-09
6.32664e-09
-5.81799e-10
1.33303e-10
-8.41392e-10
-2.62055e-09
8.49145e-11
4.13734e-09
-2.7885e-11
1.87763e-09
-3.66992e-09
1.49246e-09
-4.79383e-10
-1.11932e-09
3.34749e-09
6.4695e-10
-8.34977e-10
-8.7665e-10
-1.39158e-08
1.61597e-08
1.18773e-08
-1.28355e-08
2.96986e-09
3.4571e-09
-5.36418e-09
3.22035e-09
-4.1919e-11
-1.94939e-10
1.74488e-10
-2.04535e-10
-4.44731e-11
1.80716e-10
4.87865e-11
-4.26494e-11
-6.05661e-11
-7.11254e-11
5.21571e-12
9.1552e-12
5.67109e-12
2.98136e-12
1.34882e-09
4.16789e-11
-2.73562e-11
-2.35898e-10
-2.34497e-10
-3.98247e-10
-3.9973e-10
1.35888e-09
4.11179e-11
-4.55036e-13
1.36725e-09
2.00442e-11
4.78323e-13
1.36997e-09
1.32893e-11
3.64545e-14
1.37207e-09
8.11314e-12
5.77435e-14
1.37324e-09
5.13423e-12
1.80776e-13
1.37371e-09
3.13629e-12
-5.42726e-14
1.3736e-09
1.84781e-12
-9.07484e-14
1.37356e-09
1.96638e-12
-2.21292e-13
1.37386e-09
5.37741e-13
2.7114e-14
1.37465e-09
-2.12208e-13
2.42469e-13
1.37248e-09
3.69544e-12
-1.43119e-12
1.37307e-09
-3.423e-13
-9.29549e-14
1.37349e-09
1.00052e-13
-9.14152e-13
1.37328e-09
-6.48967e-14
-1.29176e-13
1.37374e-09
-1.61235e-12
1.20565e-12
1.37369e-09
-1.12915e-14
8.05101e-14
1.3736e-09
2.47932e-13
5.91714e-13
1.37304e-09
-1.51691e-12
-6.23113e-14
1.37334e-09
5.14225e-13
-4.54016e-13
1.37332e-09
1.2171e-13
-2.5138e-14
1.37318e-09
-1.54051e-13
-9.72513e-13
1.37312e-09
2.91093e-13
-4.70918e-13
1.3723e-09
-1.00287e-12
3.84819e-12
1.37251e-09
-8.23345e-13
2.94796e-12
1.37235e-09
-8.24822e-14
-1.99258e-13
1.3738e-09
-3.18826e-12
1.12911e-12
1.37315e-09
2.64662e-13
-5.23347e-14
1.37251e-09
1.08424e-13
9.50199e-13
1.37246e-09
2.88494e-13
-2.62454e-14
1.37204e-09
5.35645e-13
-5.89833e-13
1.37361e-09
-2.36983e-12
4.30964e-13
1.37298e-09
3.76177e-13
1.56254e-13
1.37293e-09
-4.21382e-14
-8.40361e-14
1.3734e-09
-2.65182e-13
-2.88795e-13
1.37319e-09
1.5646e-12
-7.17944e-13
1.37164e-09
3.95757e-12
-2.06158e-12
1.3722e-09
-5.0541e-13
2.98144e-14
1.37225e-09
6.49703e-14
-2.62822e-13
1.37269e-09
-1.40797e-13
-8.27466e-14
1.3726e-09
1.70567e-13
5.34843e-14
1.37199e-09
-5.19616e-13
8.87745e-13
1.29523e-12
-1.2176e-12
-2.36498e-09
3.4411e-10
3.19395e-09
4.14803e-09
1.27238e-09
-5.39487e-09
1.98213e-09
-6.3924e-10
-8.89852e-10
-3.3432e-10
-1.44241e-10
5.65008e-09
6.40065e-09
-2.30319e-09
-6.51477e-10
-5.2128e-10
-2.71809e-09
-1.38815e-09
-5.21112e-10
-7.69788e-10
-1.4383e-09
-1.73931e-09
-5.90137e-10
-1.97977e-09
1.66448e-08
-3.34784e-09
-1.07271e-08
1.27414e-09
1.73547e-09
-2.00262e-09
-1.07615e-08
9.75453e-09
-4.65594e-10
1.21118e-10
-1.1132e-10
-2.68431e-10
7.24229e-10
-5.72402e-11
-2.63397e-12
1.80688e-12
3.66402e-11
2.14272e-11
1.33285e-09
-1.28386e-12
-2.69384e-11
-2.26616e-10
-2.29865e-10
-3.88254e-10
-3.94835e-10
-8.54025e-12
-1.80776e-12
-1.30766e-11
1.34193e-09
3.31033e-11
-1.17794e-12
1.35671e-09
5.23826e-12
-8.80497e-14
1.36321e-09
6.61743e-12
4.80227e-14
1.36743e-09
3.77405e-12
1.38482e-14
1.36991e-09
2.58482e-12
-1.8714e-14
1.37148e-09
1.45357e-12
3.67603e-14
1.37236e-09
8.79394e-13
2.24235e-14
1.37274e-09
1.17065e-12
3.47135e-13
1.37262e-09
5.90059e-13
1.31664e-15
1.37256e-09
-2.14043e-13
7.71255e-15
1.37466e-09
8.70548e-13
6.76925e-13
1.37376e-09
3.47776e-13
1.56091e-13
1.3735e-09
4.38376e-14
2.7196e-13
1.37345e-09
1.24164e-13
-1.87665e-13
1.37348e-09
3.75334e-13
-2.05865e-12
1.37364e-09
3.60862e-13
-5.70471e-13
1.37395e-09
6.88539e-14
-1.62469e-13
1.3729e-09
-5.87147e-13
7.65922e-14
1.37303e-09
-1.27057e-14
3.57149e-13
1.3732e-09
5.37705e-14
-1.37902e-13
1.37238e-09
-1.1328e-12
1.75887e-12
1.37226e-09
1.83491e-12
-1.46377e-12
1.37276e-09
2.37663e-13
-1.77574e-12
1.37291e-09
5.96199e-13
-1.61192e-12
1.37421e-09
-4.5139e-12
3.09054e-12
1.37318e-09
-3.07307e-12
8.81324e-13
1.37285e-09
5.67394e-13
-1.21755e-14
1.37303e-09
-5.95455e-14
-4.35416e-14
1.37319e-09
-1.50976e-13
2.42347e-13
1.37327e-09
1.47343e-13
2.7361e-13
1.37196e-09
-9.88592e-13
-1.04613e-13
1.3721e-09
4.45372e-13
-2.41506e-13
1.37222e-09
-1.83251e-13
-2.53777e-16
1.37204e-09
-8.00494e-14
-2.88172e-14
1.37198e-09
4.60902e-13
1.13326e-12
1.37343e-09
5.07655e-13
1.98077e-12
1.37279e-09
2.88384e-14
8.2365e-14
1.3727e-09
1.47437e-14
1.30587e-13
1.37237e-09
-1.1582e-14
1.8992e-13
1.37228e-09
2.03496e-13
3.99121e-14
1.37244e-09
6.01228e-13
-1.28568e-12
-2.43356e-13
1.25728e-12
-2.78425e-09
-5.11288e-09
8.39014e-09
-3.02042e-10
9.18539e-10
2.86131e-09
1.33487e-09
-4.6728e-09
-4.41895e-10
-1.8135e-09
-2.27144e-09
7.59985e-10
5.93388e-10
-1.42802e-09
2.2832e-10
-3.62618e-09
2.25536e-09
1.59504e-09
1.61227e-09
3.11777e-09
-1.69142e-09
-6.93433e-10
1.36195e-09
1.74507e-09
-3.78016e-09
1.41158e-09
-1.16567e-08
1.22802e-08
-8.03866e-10
6.54052e-09
2.3383e-09
-2.98826e-09
-1.15827e-09
-3.2947e-09
-1.03854e-09
-9.01691e-08
6.72851e-08
6.95283e-08
-4.62415e-08
2.48243e-10
-1.28077e-10
-5.92828e-11
-5.18015e-11
-9.08336e-12
-6.77601e-11
2.01496e-11
1.39644e-12
-5.20093e-11
9.82234e-11
-2.99303e-11
1.83747e-10
-1.11791e-11
-2.46836e-12
-3.12308e-11
-5.3824e-11
-5.64095e-11
1.32494e-09
-1.44375e-11
-1.85223e-11
-2.34231e-10
-2.42974e-10
-3.82014e-10
-3.99701e-10
1.34614e-09
-1.37514e-11
-2.31918e-12
1.35752e-09
-5.6335e-12
7.4711e-13
1.3642e-09
-2.99342e-12
-2.26209e-14
1.3682e-09
-1.63066e-12
1.28297e-13
1.37044e-09
-8.93717e-13
3.94552e-14
1.37174e-09
-5.44826e-13
4.72747e-14
1.37308e-09
-3.34908e-13
1.05787e-13
1.37352e-09
-3.49228e-14
1.22174e-13
1.37315e-09
-5.7692e-14
1.6207e-13
1.37281e-09
7.27171e-13
4.30839e-13
1.37336e-09
-2.29191e-13
-2.62133e-14
1.37353e-09
2.92739e-13
-4.68507e-13
1.37383e-09
-1.85066e-13
-2.82355e-14
1.37339e-09
-4.80426e-13
1.24866e-12
1.37318e-09
-3.57868e-13
8.89347e-13
1.3728e-09
9.04495e-13
-4.95982e-13
1.37282e-09
-4.58314e-13
-1.79876e-13
1.37271e-09
5.72734e-14
-3.32594e-15
1.37245e-09
-8.22391e-14
3.57805e-13
1.37296e-09
7.27399e-13
-2.41263e-12
1.37389e-09
1.01961e-12
-1.4997e-13
1.37358e-09
4.78752e-13
2.651e-14
1.37455e-09
5.64364e-13
-9.70086e-13
1.37283e-09
-2.06736e-13
-2.63413e-12
1.37245e-09
8.19211e-15
-2.73619e-12
1.37273e-09
4.64073e-13
-2.14081e-13
1.37282e-09
-2.60939e-13
7.2886e-14
1.37292e-09
1.8433e-14
-3.0533e-13
1.37277e-09
-1.31008e-13
3.9826e-13
1.37267e-09
-5.33461e-13
-3.82579e-13
1.37194e-09
4.52811e-13
6.90771e-13
1.37199e-09
-2.31032e-13
-2.76903e-14
1.37222e-09
-2.86955e-13
-5.38072e-14
1.37284e-09
-1.87791e-12
1.70002e-12
1.37318e-09
7.29621e-14
7.37493e-14
1.37268e-09
2.15801e-13
2.88076e-13
1.37259e-09
-2.52405e-13
3.48133e-13
1.3724e-09
2.56197e-13
-9.96148e-14
1.37209e-09
5.59949e-13
-4.95842e-14
1.37204e-09
2.81543e-13
3.57501e-13
-1.76799e-12
7.95859e-13
-1.75413e-10
-3.21578e-09
5.06069e-09
-1.53673e-09
1.05088e-09
6.44588e-10
-1.63725e-09
-5.68537e-10
1.75298e-08
-1.72857e-08
-2.66494e-11
2.27889e-10
-9.84969e-10
-1.93255e-10
1.30144e-09
-9.36433e-10
1.22482e-09
-1.56335e-09
-1.19616e-09
2.47112e-09
7.90665e-10
-2.32806e-10
-2.54514e-08
1.42064e-09
3.04414e-09
1.18224e-09
-4.50149e-09
-2.51092e-09
-3.24975e-09
-1.4531e-09
6.89455e-10
-3.0997e-10
5.72446e-10
3.5624e-08
2.58412e-08
-2.81232e-08
-2.1925e-09
1.08877e-09
-3.01725e-09
7.94774e-10
1.0579e-09
-1.04822e-11
4.83155e-10
-7.399e-10
1.13497e-11
-1.20445e-10
1.89938e-11
-8.56361e-11
1.7574e-10
-6.77952e-11
-2.15716e-11
3.10071e-11
-6.7971e-11
1.26331e-10
-3.69915e-11
2.00088e-10
-8.9009e-13
3.35391e-12
-3.75819e-11
-6.86205e-11
-6.93778e-11
1.002e-11
1.35413e-09
-1.83049e-11
-2.06882e-11
-2.54244e-10
-2.51004e-10
-4.16405e-10
-4.07956e-10
1.36055e-09
-1.69026e-11
-3.3924e-12
1.36413e-09
-9.93132e-12
5.84017e-13
1.36711e-09
-6.02472e-12
-5.54242e-14
1.36948e-09
-4.12902e-12
4.20884e-14
1.37099e-09
-2.4934e-12
2.15465e-14
1.37195e-09
-1.59615e-12
2.09115e-14
1.37243e-09
-8.92263e-13
2.20987e-14
1.37309e-09
-6.6158e-13
-9.1492e-14
1.37327e-09
-1.28262e-13
-1.59167e-13
1.37382e-09
-1.57366e-13
2.7232e-13
1.37354e-09
-3.86168e-14
3.70301e-14
1.3736e-09
-5.98146e-14
2.39902e-13
1.37336e-09
-3.98964e-14
5.83201e-14
1.37308e-09
1.03302e-12
-1.27564e-12
1.37348e-09
-7.90664e-13
-5.21606e-15
1.37364e-09
1.26309e-13
5.77178e-13
1.37315e-09
7.25471e-13
-7.30339e-13
1.37316e-09
-2.35e-14
2.45835e-14
1.37333e-09
7.43748e-13
-1.03433e-12
1.37375e-09
1.06658e-12
-7.9039e-13
1.37299e-09
1.14711e-13
1.62546e-12
1.37295e-09
5.4102e-13
-7.01779e-14
1.37293e-09
5.27898e-13
2.48088e-14
1.37282e-09
-1.95874e-13
6.06352e-14
1.37282e-09
-1.57748e-14
-2.04597e-14
1.373e-09
6.19997e-14
1.8765e-13
1.37279e-09
-1.64668e-14
-6.71025e-14
1.37286e-09
3.90229e-14
-1.29776e-13
1.3727e-09
2.24762e-13
-2.27844e-13
1.37206e-09
-3.2882e-13
4.07095e-13
1.37252e-09
1.07822e-12
-1.11944e-12
1.37218e-09
1.59294e-13
-7.42232e-14
1.37322e-09
1.05593e-12
-2.41139e-12
1.3726e-09
4.33215e-13
-1.70948e-12
1.37243e-09
1.30158e-13
8.58817e-14
1.37302e-09
1.63222e-13
-5.58167e-13
1.37287e-09
1.6945e-13
-2.85806e-13
1.37301e-09
1.52218e-12
-1.42329e-12
1.37162e-09
1.97104e-12
-3.10546e-14
1.37202e-09
2.40752e-14
-1.4126e-13
-1.93567e-12
4.2587e-13
4.67859e-09
1.35934e-08
5.01215e-09
-2.32591e-08
-7.41982e-09
-4.79165e-09
9.96592e-09
1.05931e-09
-3.70334e-09
-3.85733e-09
1.12659e-09
1.46876e-10
1.43933e-09
4.08103e-09
1.953e-09
-7.18925e-10
-4.2833e-09
5.57189e-09
-6.89513e-10
1.01491e-08
-4.86233e-09
-1.07322e-09
-4.09376e-09
-5.07664e-11
-1.82687e-09
-2.59514e-09
4.23998e-09
3.49526e-11
-5.18754e-11
3.37163e-10
-5.67958e-10
2.47724e-10
-2.11017e-10
-5.97636e-11
-3.32147e-10
-2.24171e-10
8.27098e-10
-7.68321e-11
-6.95995e-11
2.43699e-11
1.95096e-11
1.02552e-10
-4.64619e-11
1.99088e-10
-5.32892e-12
4.89941e-11
-4.54466e-11
-7.46828e-11
-7.48827e-11
-1.28006e-12
1.36468e-09
-2.8383e-11
-1.624e-11
-2.56927e-10
-2.57214e-10
-4.11304e-10
-4.12962e-10
1.36792e-09
-1.64375e-11
-3.84415e-12
1.36933e-09
-1.22649e-11
7.86447e-13
1.37065e-09
-7.05917e-12
-3.90116e-13
1.37226e-09
-6.54461e-12
7.18455e-13
1.37286e-09
-3.18908e-12
2.53377e-14
1.37315e-09
-2.09517e-12
1.51001e-13
1.37334e-09
-1.30532e-12
1.62672e-13
1.37322e-09
-6.36565e-13
3.97146e-14
1.37352e-09
-4.95611e-13
9.46522e-15
1.3735e-09
-2.78864e-13
8.40484e-14
1.3735e-09
-2.84577e-13
1.98457e-13
1.37334e-09
4.2331e-15
4.08388e-14
1.37354e-09
-9.24608e-13
6.41942e-13
1.37366e-09
-1.88329e-13
1.06251e-12
1.37336e-09
-2.469e-13
-2.88561e-13
1.37361e-09
-1.60174e-13
5.92874e-15
1.37354e-09
-1.99339e-13
9.52531e-13
1.37363e-09
-1.49738e-13
-2.17939e-15
1.37335e-09
7.92789e-14
9.0037e-13
1.37278e-09
3.12967e-13
1.28455e-12
1.37299e-09
-6.55412e-13
5.27342e-13
1.3735e-09
1.49748e-13
-1.58565e-13
1.37265e-09
1.5066e-12
-1.67064e-13
1.37278e-09
-1.13528e-13
-2.5076e-13
1.37276e-09
-3.74599e-14
4.8894e-16
1.37275e-09
1.83443e-13
-1.4649e-13
1.37269e-09
-1.05629e-14
1.6718e-14
1.37245e-09
-3.44006e-13
5.89823e-13
1.37224e-09
-3.42066e-13
7.36863e-13
1.37243e-09
-2.97873e-13
-2.50658e-13
1.37317e-09
-3.44968e-14
3.41903e-13
1.3733e-09
-3.3304e-13
3.34861e-13
1.37182e-09
-1.12448e-13
2.62287e-12
1.37201e-09
2.855e-13
-6.14218e-14
1.3726e-09
-7.59537e-13
2.74284e-13
1.3729e-09
-2.21055e-13
6.50333e-14
1.37327e-09
-1.3228e-13
-8.37204e-14
1.37319e-09
-1.34874e-12
2.9445e-12
1.37185e-09
3.46493e-12
-1.7275e-13
1.37204e-09
-9.16365e-13
7.4838e-13
-2.37563e-13
-8.29261e-13
1.57247e-10
-8.88325e-10
-4.76646e-10
-1.36245e-09
-1.37987e-09
-4.11047e-10
-2.34922e-08
1.50813e-08
1.22194e-08
1.63963e-09
8.68016e-10
2.33648e-09
-1.06479e-09
-4.42669e-10
2.15841e-10
-2.81217e-09
1.39372e-09
-6.62589e-10
3.4956e-09
-5.02342e-09
7.9669e-10
-1.60119e-09
-4.66305e-10
4.32468e-10
1.5503e-09
-1.69366e-09
8.52201e-10
4.55547e-10
4.70641e-10
1.02834e-11
2.69318e-09
3.10134e-09
-4.84906e-09
-6.73241e-10
-3.00811e-10
3.18455e-10
-3.00149e-10
6.92187e-11
-2.49866e-09
1.11293e-09
7.08275e-10
6.08232e-10
-1.34802e-12
-1.72065e-09
6.58992e-10
-2.1564e-10
1.27864e-09
-1.2997e-10
-1.37133e-11
1.71641e-11
3.60214e-11
9.04982e-11
-5.17918e-11
2.02409e-10
-1.03936e-11
5.73685e-11
6.06123e-12
-4.855e-11
-7.67985e-11
-7.83051e-11
1.37488e-09
-3.64863e-11
-1.80632e-11
-2.57844e-10
-2.58788e-10
-4.13625e-10
-4.18513e-10
1.37759e-09
-1.57412e-11
-3.54446e-12
1.37624e-09
-1.17993e-11
7.6036e-13
1.37615e-09
-7.13848e-12
6.92599e-14
1.37484e-09
-4.7444e-12
-5.77453e-13
1.37447e-09
-2.91393e-12
2.29492e-14
1.37427e-09
-1.8125e-12
-1.40293e-13
1.37408e-09
-1.05059e-12
-1.24041e-13
1.37391e-09
-5.75636e-13
5.74043e-14
1.37392e-09
-2.94227e-13
-2.69436e-13
1.37387e-09
-2.17623e-13
-6.52077e-14
1.37357e-09
1.97069e-13
-2.34654e-13
1.37369e-09
1.5624e-13
-3.27489e-13
1.3735e-09
2.29209e-13
-1.00636e-12
1.37356e-09
-8.16599e-13
5.26552e-13
1.37323e-09
-1.74983e-14
6.0447e-14
1.37276e-09
-3.8487e-14
3.1438e-13
1.37409e-09
1.23009e-12
-2.80454e-12
1.37385e-09
5.86952e-14
-2.09679e-15
1.37374e-09
2.74088e-13
-1.22117e-13
1.37363e-09
3.66449e-13
1.34401e-14
1.37257e-09
3.06081e-12
-2.70012e-12
1.37222e-09
-9.30455e-13
1.39514e-12
1.37312e-09
8.26955e-14
4.78663e-13
1.3729e-09
2.93949e-14
4.70911e-14
1.37275e-09
1.84841e-13
-1.17797e-13
1.37243e-09
1.2624e-12
-7.96593e-13
1.37249e-09
-4.76906e-14
-5.34996e-14
1.37255e-09
-1.64037e-13
-2.74178e-13
1.37272e-09
1.27444e-13
-6.69421e-13
1.37264e-09
-4.41068e-13
1.86414e-13
1.37279e-09
-6.82316e-13
4.67227e-13
1.37274e-09
-2.15026e-13
-9.09516e-14
1.3726e-09
-1.78208e-14
1.47442e-14
1.37293e-09
-3.92313e-14
-3.07166e-14
1.37205e-09
4.25283e-13
-3.18229e-13
1.37181e-09
-1.95578e-13
1.89882e-13
1.37174e-09
-7.45327e-14
-4.13599e-15
1.37171e-09
1.51402e-12
-2.84072e-12
1.37371e-09
1.21938e-12
2.33484e-13
1.37339e-09
-3.9272e-13
-2.12605e-13
-7.22317e-13
1.6276e-12
-4.18762e-10
-1.90906e-09
4.03375e-09
-1.68098e-09
-4.22907e-09
4.56571e-09
-5.23713e-09
-2.63852e-09
1.0608e-09
2.92968e-09
1.08461e-09
2.46392e-09
-1.43772e-09
2.77615e-09
-1.73074e-10
1.71104e-09
-1.12232e-08
2.30503e-08
-2.12818e-08
6.57678e-09
-1.27233e-10
-2.98907e-09
2.65144e-09
2.99087e-09
-2.52601e-09
2.40134e-10
-6.35731e-10
-2.50694e-10
-1.42047e-09
2.06677e-09
-2.38528e-10
1.62251e-10
-1.805e-11
2.32322e-10
-1.37993e-10
-1.23961e-10
4.72282e-11
-2.5314e-11
-6.50193e-11
1.67066e-10
-3.87544e-11
1.57903e-11
1.88279e-10
-1.26201e-11
3.47902e-11
-4.14509e-11
-6.79793e-11
-7.80551e-11
1.3922e-09
-2.80446e-11
-2.46937e-11
-2.58525e-10
-2.61282e-10
-4.23667e-10
-4.32532e-10
1.38855e-09
-9.58934e-12
-2.61987e-12
1.38346e-09
-7.32834e-12
5.07e-13
1.38029e-09
-4.04454e-12
-2.63089e-14
1.378e-09
-2.5385e-12
1.11907e-14
1.37654e-09
-1.53851e-12
1.10923e-14
1.37549e-09
-8.3509e-13
1.04567e-14
1.37488e-09
-5.18731e-13
8.90766e-15
1.37447e-09
-2.34217e-13
1.29365e-14
1.3738e-09
-3.06779e-14
3.4873e-13
1.37405e-09
-5.42944e-13
2.80155e-14
1.37405e-09
-3.10853e-14
1.67779e-13
1.37357e-09
9.33897e-14
5.00428e-13
1.37375e-09
-1.05445e-13
1.10578e-13
1.37343e-09
5.14533e-14
-5.93863e-13
1.37352e-09
-8.83534e-14
-5.27758e-14
1.37374e-09
9.74298e-14
-4.01255e-13
1.37285e-09
-5.35071e-13
2.624e-12
1.3732e-09
-3.38067e-13
2.59027e-15
1.37369e-09
-3.50358e-13
9.91319e-14
1.37193e-09
5.09393e-12
-3.00821e-12
1.37292e-09
-5.17697e-13
2.54712e-12
1.37333e-09
-3.00521e-13
-1.08317e-12
1.37296e-09
-1.14527e-13
5.30742e-13
1.3728e-09
6.72222e-14
8.44922e-14
1.37275e-09
3.27894e-14
1.63298e-13
1.37304e-09
-1.01308e-14
9.43414e-13
1.37284e-09
9.42019e-14
2.5185e-14
1.37264e-09
3.67189e-14
-3.70133e-14
1.37261e-09
1.74788e-13
-4.5609e-14
1.37205e-09
2.26222e-13
-1.36965e-13
1.37319e-09
-2.63669e-12
7.76654e-13
1.37274e-09
3.01987e-13
-8.91964e-14
1.37261e-09
4.96935e-14
3.18563e-14
1.3726e-09
-3.87452e-15
-4.85571e-14
1.37223e-09
6.3383e-13
1.39729e-13
1.37202e-09
-2.66064e-13
2.68139e-13
1.37187e-09
7.79969e-14
-2.61158e-14
1.37228e-09
-7.48272e-13
1.84508e-12
1.37272e-09
7.08509e-13
5.98124e-14
1.37295e-09
-9.66862e-14
-5.30264e-13
-2.91334e-13
-1.0787e-12
2.45074e-09
6.28603e-09
-6.30211e-09
2.11298e-08
-2.18431e-08
6.68289e-09
-2.68927e-09
-1.05656e-09
-2.53607e-09
-1.9318e-09
5.12766e-10
2.8586e-09
-4.85717e-10
-3.46777e-10
-2.53888e-09
1.03715e-10
3.81428e-09
-1.30025e-09
-9.89261e-10
-4.98006e-10
-1.99372e-10
9.62439e-11
-5.45202e-10
1.05636e-10
-9.8717e-11
-4.89098e-10
2.72582e-10
3.4276e-11
-1.21368e-09
8.86803e-10
2.00213e-11
-1.73437e-09
-8.34217e-10
-5.78415e-10
4.6183e-09
-1.4713e-09
1.52543e-11
2.42752e-10
-2.66533e-11
-3.43314e-10
1.11962e-10
-5.98441e-11
5.45212e-11
-5.15742e-11
-2.67459e-11
8.3643e-11
-3.58075e-11
5.75793e-12
1.96653e-10
-1.63648e-12
1.09694e-11
-3.85885e-11
-6.57853e-11
-7.15625e-11
1.40534e-09
-2.3986e-11
-2.61503e-11
-2.61624e-10
-2.58438e-10
-4.34062e-10
-4.29177e-10
1.3957e-09
2.10488e-12
-2.16461e-12
1.38809e-09
-2.6367e-13
4.39769e-13
1.38311e-09
9.39843e-13
-8.5751e-14
1.37963e-09
8.38339e-13
1.79392e-14
1.37752e-09
4.94518e-13
5.45815e-15
1.37627e-09
2.94709e-13
5.07787e-14
1.37547e-09
2.00904e-13
1.58602e-14
1.37461e-09
5.98267e-13
-3.46871e-14
1.37435e-09
2.06355e-13
-2.98801e-14
1.37335e-09
2.35389e-13
1.6547e-13
1.37388e-09
-4.45515e-13
-1.71252e-13
1.37385e-09
1.76609e-13
-9.94382e-14
1.37375e-09
2.99392e-13
-3.46202e-13
1.37353e-09
-4.34983e-13
6.68426e-13
1.37352e-09
-1.44171e-13
2.23807e-14
1.3731e-09
-8.72508e-13
1.35199e-12
1.37314e-09
-4.52862e-13
-1.5893e-13
1.37274e-09
1.9383e-14
5.676e-15
1.37202e-09
3.71257e-13
-3.9212e-14
1.37348e-09
5.91267e-13
3.00309e-12
1.37317e-09
6.23127e-13
-8.76336e-13
1.37392e-09
-2.91479e-12
1.82541e-12
1.37362e-09
1.20325e-13
2.40319e-14
1.37269e-09
1.2344e-12
-2.7169e-13
1.37274e-09
-1.22975e-13
6.25902e-14
1.37284e-09
-1.43001e-13
-1.46914e-15
1.37295e-09
-1.88827e-13
1.42079e-13
1.37273e-09
2.01725e-13
1.53932e-14
1.37287e-09
-1.14771e-13
1.20462e-13
1.37324e-09
-1.26958e-13
-4.55356e-14
1.37215e-09
-4.07572e-13
-1.17492e-12
1.37244e-09
-1.3759e-15
-1.03064e-14
1.3722e-09
3.13676e-16
2.62648e-13
1.37214e-09
-1.51134e-14
4.67379e-14
1.37261e-09
3.53837e-13
-2.10479e-13
1.37231e-09
2.23041e-13
-2.05976e-13
1.37176e-09
5.69377e-13
3.50553e-14
1.37237e-09
-1.18764e-12
-1.7943e-13
1.37223e-09
5.75864e-13
2.59481e-13
1.37317e-09
-2.44828e-12
1.40497e-12
-5.2363e-13
-5.95327e-13
1.0403e-10
-1.57069e-09
-8.43859e-10
2.50149e-09
-1.10033e-09
-2.63458e-09
4.21923e-09
-1.14862e-09
4.60006e-09
-1.99172e-09
5.88602e-11
-2.0029e-09
-8.23257e-10
1.16629e-09
2.3668e-10
1.72806e-09
3.74605e-10
-1.52473e-09
-1.5492e-09
3.91553e-10
8.18117e-10
1.14841e-09
-2.61601e-09
5.80253e-10
6.92286e-11
1.46952e-09
-2.60816e-10
4.29225e-10
-3.78154e-10
-1.25977e-09
8.69711e-12
5.97889e-10
-2.51477e-10
-1.76449e-10
-1.7866e-10
-1.19215e-10
-7.15382e-12
1.25799e-11
4.50642e-11
6.87246e-11
1.46098e-09
6.26266e-11
-3.29606e-11
-2.70222e-10
-2.70168e-10
-4.56967e-10
-4.51325e-10
-5.77486e-12
-1.18346e-11
-6.88213e-12
-1.74827e-11
1.416e-09
2.2496e-11
-1.61402e-12
1.40006e-09
1.80694e-11
-1.03295e-13
1.38943e-09
1.0339e-11
-6.48457e-14
1.38346e-09
7.03557e-12
-2.12731e-13
1.37919e-09
5.11587e-12
-8.53898e-14
1.37719e-09
2.41493e-12
-5.69972e-15
1.37596e-09
1.38227e-12
7.26144e-14
1.3746e-09
1.51322e-12
-2.25845e-14
1.37468e-09
4.10208e-13
5.44493e-14
1.37442e-09
4.39475e-13
-3.75069e-14
1.37433e-09
4.03501e-13
-1.26001e-13
1.37362e-09
2.18632e-13
-8.92018e-15
1.37357e-09
9.28888e-14
8.88418e-14
1.37327e-09
-1.62016e-13
7.20673e-13
1.37339e-09
2.1888e-14
-6.16127e-13
1.37305e-09
1.67113e-13
-1.13694e-14
1.3735e-09
1.42125e-13
-1.50507e-12
1.37362e-09
-7.15649e-13
1.06951e-13
1.37311e-09
9.70429e-13
-4.83663e-13
1.37351e-09
-7.78183e-14
8.75893e-15
1.37358e-09
3.12418e-13
1.71284e-13
1.37342e-09
1.51942e-13
5.88666e-13
1.37254e-09
-1.80056e-13
-1.89218e-12
1.3724e-09
2.09963e-13
1.29625e-14
1.37323e-09
1.27614e-12
-9.12268e-13
1.37279e-09
9.71825e-15
2.71481e-13
1.3728e-09
-3.7562e-13
1.89326e-13
1.37268e-09
-3.67028e-16
-1.08265e-13
1.37276e-09
-6.25483e-14
1.49859e-13
1.37314e-09
-4.41618e-13
-8.73997e-14
1.37276e-09
9.13133e-13
-6.8671e-13
1.3727e-09
-2.7832e-13
-1.04329e-13
1.37271e-09
-2.52447e-13
2.19622e-13
1.37237e-09
1.08744e-12
-7.79701e-13
1.37238e-09
-2.0696e-14
-2.53601e-14
1.37216e-09
4.55223e-13
9.77334e-14
1.37264e-09
-5.59664e-13
2.78981e-13
1.37301e-09
-1.29191e-14
1.98091e-13
1.37183e-09
3.41805e-13
-3.62594e-13
1.37207e-09
4.55148e-13
-1.22353e-13
1.37188e-09
8.12708e-13
-3.0837e-12
-2.8874e-12
1.87747e-13
5.47862e-09
-1.05981e-08
5.89039e-11
-2.97157e-09
-2.11079e-09
-2.8335e-09
3.20848e-09
2.92679e-09
1.33103e-09
-2.80769e-10
2.19601e-09
-3.13944e-09
6.70279e-09
9.73123e-10
-1.95536e-09
7.78253e-09
3.90406e-09
-4.54303e-09
-4.88181e-09
2.00151e-09
-3.28101e-09
1.03193e-09
-2.56948e-10
-3.18269e-10
-2.13812e-09
1.68141e-09
-7.99975e-10
-4.62736e-10
-2.48994e-10
2.47422e-10
1.26428e-09
1.14575e-09
-1.30012e-09
1.46316e-09
-6.39401e-10
-6.69388e-10
-4.63879e-11
-1.6489e-12
2.47179e-12
1.47601e-11
3.08049e-11
1.4264e-09
-3.66345e-11
-2.66803e-10
-2.60835e-10
-4.52661e-10
-4.41739e-10
1.39892e-09
-9.63801e-13
1.38814e-09
-2.52658e-13
1.38222e-09
-1.98828e-14
1.37858e-09
1.79433e-13
1.37707e-09
-7.1846e-14
1.37562e-09
1.21869e-13
1.37516e-09
1.7936e-14
1.3749e-09
-9.14574e-14
1.37432e-09
-2.26102e-14
1.37389e-09
-8.54171e-14
1.3739e-09
1.69784e-13
1.37385e-09
-6.14265e-15
1.37324e-09
9.93142e-13
1.37336e-09
1.36719e-14
1.37318e-09
6.25979e-14
1.37319e-09
4.05999e-14
1.37268e-09
-1.92771e-13
1.37381e-09
2.09806e-13
1.37355e-09
7.81057e-13
1.37327e-09
2.53003e-14
1.37364e-09
1.11892e-12
1.37346e-09
4.66819e-13
1.37315e-09
-1.98954e-12
1.37219e-09
-1.25918e-12
1.37262e-09
1.20407e-12
1.37268e-09
4.65959e-13
1.37271e-09
-5.61449e-14
1.37308e-09
-8.79312e-13
1.37281e-09
-7.68017e-14
1.37259e-09
1.61722e-13
1.37308e-09
7.17938e-13
1.37271e-09
1.22356e-13
1.37263e-09
-6.73096e-14
1.37299e-09
7.54869e-13
1.3726e-09
-3.27123e-13
1.3727e-09
-3.28951e-14
1.37231e-09
-3.04685e-13
1.37253e-09
-1.24569e-13
1.37254e-09
8.72913e-14
1.37309e-09
-2.49718e-13
1.37237e-09
1.75226e-12
-1.3035e-13
4.00924e-09
-2.08077e-09
-1.87983e-08
5.07556e-09
3.67941e-09
1.39436e-09
2.2399e-10
-4.55729e-09
1.55839e-09
-1.11608e-08
7.42088e-09
5.57442e-10
7.91899e-09
2.86726e-08
-3.35865e-09
5.82311e-09
6.23209e-10
-3.34276e-08
-4.76753e-10
9.28702e-09
-1.67518e-10
-7.13172e-09
-3.3805e-10
4.71682e-09
8.5082e-10
-3.53237e-09
-3.7984e-09
-3.17658e-10
-1.42995e-09
2.60708e-10
-2.12522e-09
2.60398e-09
4.22031e-10
-1.53298e-10
8.60963e-10
-3.17273e-09
-7.83543e-11
-3.08178e-11
5.53679e-10
-6.86593e-11
-1.30815e-10
-7.49349e-11
-1.42033e-10
1.70055e-11
1.741e-11
1.08688e-11
1.0702e-11
2.26114e-09
5.71064e-11
2.72463e-11
-5.58322e-10
-5.6138e-10
-5.58476e-10
-5.61356e-10
2.2695e-09
6.27771e-11
4.29664e-13
2.28131e-09
2.96092e-11
-1.39616e-13
2.28442e-09
1.99798e-11
-9.1026e-14
2.28721e-09
1.22233e-11
-4.11726e-13
2.28887e-09
7.75554e-12
-3.42279e-13
2.28914e-09
4.62191e-12
1.74717e-13
2.28891e-09
2.78302e-12
-1.22106e-13
2.28877e-09
1.50283e-12
5.54751e-13
2.28921e-09
8.5137e-13
-5.28063e-14
2.29014e-09
-7.07032e-14
4.49506e-13
2.28717e-09
2.37073e-12
2.16561e-13
2.28798e-09
-4.71219e-13
-3.52256e-13
2.28865e-09
1.94546e-13
7.98437e-13
2.2882e-09
6.14782e-13
-3.09539e-13
2.28889e-09
1.30556e-12
-7.86098e-13
2.2889e-09
1.58782e-13
-9.4069e-14
2.28882e-09
5.69737e-13
1.19682e-12
2.28797e-09
-2.15329e-12
6.29134e-13
2.28854e-09
-4.58754e-13
2.4676e-13
2.28862e-09
1.21553e-13
-5.27891e-14
2.28795e-09
-3.93436e-13
4.2226e-13
2.28784e-09
3.86279e-13
-3.05112e-13
2.28673e-09
5.52813e-12
-1.41791e-12
2.28688e-09
4.54698e-12
-2.95685e-12
2.28716e-09
-1.45282e-12
1.28383e-13
2.28918e-09
1.42188e-12
-1.77685e-12
2.28826e-09
5.13209e-13
3.14849e-13
2.2872e-09
2.49757e-13
-9.60004e-13
2.28688e-09
5.94462e-13
1.64568e-14
2.28639e-09
-1.41498e-12
7.76619e-13
2.28868e-09
-8.25359e-13
-1.53047e-12
2.28803e-09
7.77549e-13
-8.51978e-14
2.28784e-09
1.24645e-13
1.02428e-13
2.28852e-09
-3.49844e-13
-2.76076e-13
2.28825e-09
1.12016e-12
-1.76231e-12
2.28584e-09
4.29158e-12
-3.49641e-12
2.2868e-09
-7.64452e-13
-6.9185e-14
2.28673e-09
-3.59474e-13
2.01448e-13
2.28741e-09
-4.94524e-13
-1.76485e-13
2.28728e-09
2.54827e-14
1.3204e-13
2.28621e-09
6.97038e-13
8.63828e-13
-6.66317e-13
-4.40169e-13
5.81742e-10
-4.61865e-11
-2.91655e-09
8.13505e-10
3.93424e-10
-7.6624e-10
4.67099e-10
6.61301e-11
-1.83247e-10
-1.46408e-09
6.14866e-10
-3.21616e-09
4.1825e-09
1.44813e-09
7.42481e-10
-1.64323e-08
-8.37062e-10
1.81748e-08
-3.09956e-09
-3.5261e-10
-2.60439e-09
-6.96635e-08
8.43689e-08
-1.0329e-08
-1.4193e-09
2.13255e-08
-9.52965e-10
-3.28197e-09
4.41713e-09
-2.02173e-08
-1.94327e-09
3.94519e-09
-2.33322e-09
-9.59181e-10
4.80728e-10
-1.1928e-10
1.01589e-09
-6.7486e-10
3.43648e-11
-7.36845e-10
-1.13865e-10
-1.25513e-11
-1.51735e-11
1.81046e-11
-1.00102e-11
1.33496e-10
2.24377e-09
-1.64265e-12
2.69794e-11
-5.47419e-10
-5.55716e-10
-5.47439e-10
-5.55716e-10
-1.55939e-11
-1.64704e-12
-1.55937e-11
2.24744e-09
5.65228e-11
1.15183e-12
2.26648e-09
1.01827e-11
2.88965e-14
2.27481e-09
1.1449e-11
-4.64371e-15
2.28037e-09
6.47363e-12
-7.4146e-15
2.28371e-09
4.1681e-12
4.52388e-14
2.28583e-09
2.41255e-12
-3.8052e-14
2.28707e-09
1.43599e-12
-2.42305e-14
2.28753e-09
1.59053e-12
-3.39933e-13
2.28745e-09
7.83605e-13
2.35432e-14
2.28745e-09
-2.31666e-13
4.72968e-14
2.29001e-09
2.3716e-13
1.31648e-13
2.28897e-09
7.45637e-13
-1.29435e-13
2.28864e-09
6.5557e-13
3.69654e-14
2.28844e-09
2.62818e-13
2.70829e-13
2.28862e-09
-2.54806e-12
1.53008e-12
2.28912e-09
6.51257e-13
-1.65469e-12
2.28917e-09
1.78612e-13
9.25645e-14
2.28766e-09
-3.80537e-13
-2.69479e-13
2.2878e-09
-1.09552e-14
-3.17826e-13
2.28803e-09
-4.5012e-13
1.12495e-13
2.28676e-09
5.1392e-12
-2.59031e-12
2.28654e-09
2.24123e-13
-1.17286e-12
2.28765e-09
5.01283e-13
2.05883e-12
2.28794e-09
9.09239e-13
1.64615e-12
2.28964e-09
-3.23613e-12
3.08442e-12
2.28842e-09
1.10043e-12
2.34358e-12
2.2878e-09
1.11739e-12
-7.4007e-14
2.28791e-09
-4.24946e-14
5.18794e-14
2.28824e-09
3.57632e-13
8.23155e-14
2.28835e-09
-6.43049e-13
-6.84673e-13
2.28641e-09
-6.66655e-13
1.60852e-12
2.28633e-09
6.36159e-13
-8.64413e-14
2.28655e-09
-2.25936e-13
6.85684e-14
2.28627e-09
-1.44636e-13
-3.40948e-17
2.28639e-09
5.77757e-13
1.50458e-12
2.28844e-09
6.22551e-13
3.54917e-12
2.28761e-09
1.33372e-13
-2.1267e-14
2.28744e-09
7.68951e-14
-1.65868e-13
2.28702e-09
1.32289e-13
-4.34409e-14
2.28684e-09
3.61753e-13
-1.324e-13
2.28703e-09
-1.04128e-13
-6.88384e-13
-3.5866e-13
2.33386e-13
5.48901e-09
1.55278e-09
1.9522e-08
-7.84739e-10
-2.14549e-08
-1.70345e-09
-7.82851e-10
-1.23024e-09
3.9576e-11
2.58054e-09
1.5319e-09
-1.69947e-09
-5.05166e-09
2.59912e-09
1.02093e-09
1.8539e-09
-3.31448e-10
2.51399e-09
-4.85856e-09
-1.97324e-10
-2.8717e-09
-3.07424e-09
3.90317e-08
-4.73898e-08
4.74414e-09
9.55983e-09
-6.69633e-08
-1.51955e-09
-1.48248e-09
-2.74895e-10
-1.65782e-09
-1.20692e-09
-7.02674e-08
5.38715e-08
8.9198e-08
-2.05923e-12
-8.51209e-10
1.15354e-09
-3.40347e-10
4.32678e-10
4.25842e-10
-2.77545e-10
-2.06268e-10
-3.43601e-11
-1.14933e-10
2.91016e-11
-5.06466e-11
6.43002e-11
-5.78917e-12
7.79669e-11
-1.27755e-10
5.51506e-10
-2.12879e-11
6.79108e-13
-2.90578e-12
-1.32049e-10
-1.32723e-10
-1.37121e-10
2.2223e-09
-1.45145e-11
1.8999e-11
-5.35936e-10
-5.58563e-10
-5.35942e-10
-5.58586e-10
2.24556e-09
-1.80298e-11
2.36931e-12
2.26485e-09
-6.63039e-12
-7.31857e-13
2.27465e-09
-3.56393e-12
6.71076e-15
2.28075e-09
-1.82805e-12
-1.53758e-13
2.28403e-09
-9.70386e-13
-1.79378e-14
2.28598e-09
-5.7142e-13
-3.92619e-14
2.28798e-09
-3.46068e-13
-9.6199e-14
2.28859e-09
2.49605e-13
-8.20633e-14
2.28811e-09
2.95607e-13
-3.15197e-15
2.28762e-09
8.32385e-13
2.03471e-13
2.28851e-09
-3.84013e-13
9.72433e-14
2.28875e-09
-7.74849e-13
6.17962e-13
2.28931e-09
-4.0588e-13
-1.22184e-14
2.28851e-09
6.70386e-13
-1.25872e-12
2.28807e-09
-2.08297e-13
2.10618e-12
2.28744e-09
-1.15217e-12
1.373e-12
2.28741e-09
-6.15083e-13
-3.79915e-15
2.2872e-09
1.03744e-13
1.14787e-14
2.28675e-09
6.038e-13
-3.34928e-13
2.28788e-09
-9.16175e-13
2.41879e-12
2.2892e-09
-3.89965e-12
2.56825e-12
2.28881e-09
9.86237e-13
-1.55525e-13
2.29047e-09
-2.61212e-12
8.07625e-13
2.2879e-09
-4.55816e-14
-3.34339e-12
2.28702e-09
2.97085e-14
-8.68497e-13
2.28746e-09
2.94156e-13
8.53565e-14
2.28771e-09
-2.77578e-13
-1.88578e-14
2.28776e-09
-5.37247e-14
-1.48588e-14
2.28762e-09
-2.02364e-13
2.54057e-14
2.28735e-09
-8.25451e-13
-2.26915e-14
2.28614e-09
2.16264e-12
3.12486e-13
2.28613e-09
-3.30119e-13
2.41397e-14
2.28659e-09
-4.20151e-13
-2.90538e-13
2.28772e-09
5.90109e-13
5.01395e-13
2.28817e-09
2.92171e-13
-8.61551e-14
2.28755e-09
9.02437e-13
9.75679e-14
2.2875e-09
-2.20759e-13
6.67073e-13
2.28693e-09
4.2928e-13
1.44428e-13
2.28635e-09
8.41849e-13
3.25774e-14
2.28637e-09
4.46583e-13
-2.21205e-13
-2.39072e-12
1.47171e-12
-7.26733e-10
9.10498e-09
-1.1528e-08
-6.75246e-10
-4.54256e-10
1.3149e-09
-6.6118e-11
4.42896e-10
6.31795e-10
8.0485e-10
1.75859e-09
-5.12436e-08
-1.64056e-09
-2.0951e-09
1.00221e-09
2.78797e-10
5.37003e-08
-2.41279e-09
5.15343e-09
-7.86494e-10
-6.43306e-10
-1.28684e-09
-3.58484e-10
2.98436e-09
2.86408e-08
-6.83587e-08
-9.0797e-09
4.41508e-08
-5.82207e-10
2.70416e-10
2.82953e-10
2.025e-09
3.90715e-11
3.54075e-09
2.95418e-09
-3.57984e-09
-3.9559e-11
1.36971e-10
8.79263e-10
1.7725e-09
-4.21669e-08
1.2847e-08
-1.8302e-09
-3.91675e-09
7.19003e-10
1.24397e-09
1.40502e-09
4.61351e-09
-4.06475e-09
-6.28209e-10
-5.03883e-10
-3.46493e-10
3.52382e-10
6.27708e-10
4.98497e-10
-2.20331e-10
-3.86546e-11
-3.87475e-11
7.6598e-11
7.80384e-11
1.43097e-10
-1.50284e-10