/*--------------------------------*- C++ -*----------------------------------*\
| =========                 |                                                 |
| \\      /  F ield         | OpenFOAM: The Open Source CFD Toolbox           |
|  \\    /   O peration     | Version:  5.0                                   |
|   \\  /    A nd           | Web:      www.OpenFOAM.org                      |
|    \\/     M anipulation  |                                                 |
\*---------------------------------------------------------------------------*/
FoamFile
{
    version     2.0;
    format      ascii;
    class       volScalarField;
    location    "2.6";
    object      rAU;
}
// * * * * * * * * * * * * * * * * * * * * * * * * * * * * * * * * * * * * * //

dimensions      [-1 3 1 0 0 0 0];

internalField   nonuniform List<scalar> 
9340
(
9.60116e-07
8.54736e-07
1.98473e-07
7.92299e-07
8.85863e-07
6.73547e-07
1.29176e-07
3.92419e-07
3.93662e-07
3.94696e-07
3.9573e-07
3.96763e-07
3.97795e-07
3.98826e-07
3.99857e-07
4.00886e-07
4.01916e-07
4.02944e-07
4.03972e-07
4.04999e-07
4.06025e-07
4.0705e-07
4.08075e-07
4.09099e-07
4.10122e-07
4.11145e-07
4.12167e-07
4.13188e-07
4.14208e-07
4.15228e-07
4.16246e-07
4.17265e-07
4.18282e-07
4.19298e-07
4.20314e-07
4.21328e-07
4.22342e-07
4.23356e-07
4.24368e-07
4.25379e-07
4.26391e-07
4.274e-07
4.28409e-07
4.29418e-07
4.30425e-07
4.31432e-07
4.32438e-07
4.33443e-07
4.34447e-07
4.36223e-07
8.82363e-07
7.86075e-07
7.06652e-07
2.38334e-07
8.32059e-07
6.8805e-07
3.51015e-08
3.92284e-07
3.93661e-07
3.94696e-07
3.9573e-07
3.96763e-07
3.97795e-07
3.98826e-07
3.99857e-07
4.00886e-07
4.01916e-07
4.02944e-07
4.03972e-07
4.04999e-07
4.06025e-07
4.0705e-07
4.08075e-07
4.09099e-07
4.10122e-07
4.11145e-07
4.12167e-07
4.13188e-07
4.14208e-07
4.15228e-07
4.16246e-07
4.17265e-07
4.18282e-07
4.19298e-07
4.20314e-07
4.21328e-07
4.22342e-07
4.23356e-07
4.24368e-07
4.25379e-07
4.26391e-07
4.274e-07
4.28409e-07
4.29418e-07
4.30425e-07
4.31432e-07
4.32438e-07
4.33443e-07
4.34447e-07
4.36223e-07
8.92256e-07
5.38219e-07
8.75818e-07
5.41746e-07
7.84447e-07
6.92408e-07
8.71198e-08
1.29779e-07
3.93453e-07
3.94697e-07
3.9573e-07
3.96763e-07
3.97795e-07
3.98826e-07
3.99857e-07
4.00886e-07
4.01916e-07
4.02944e-07
4.03972e-07
4.04999e-07
4.06025e-07
4.0705e-07
4.08075e-07
4.09099e-07
4.10122e-07
4.11145e-07
4.12167e-07
4.13188e-07
4.14208e-07
4.15228e-07
4.16246e-07
4.17265e-07
4.18282e-07
4.19298e-07
4.20314e-07
4.21328e-07
4.22342e-07
4.23356e-07
4.24368e-07
4.25379e-07
4.26391e-07
4.274e-07
4.28409e-07
4.29418e-07
4.30425e-07
4.31432e-07
4.32438e-07
4.33443e-07
4.34447e-07
4.36223e-07
8.54923e-07
8.74025e-07
8.68908e-07
9.53323e-07
8.55162e-07
6.82857e-07
6.98747e-07
1.29721e-07
3.93454e-07
3.94697e-07
3.95731e-07
3.96763e-07
3.97795e-07
3.98827e-07
3.99857e-07
4.00886e-07
4.01916e-07
4.02944e-07
4.03972e-07
4.04999e-07
4.06025e-07
4.0705e-07
4.08075e-07
4.09099e-07
4.10122e-07
4.11145e-07
4.12167e-07
4.13188e-07
4.14208e-07
4.15228e-07
4.16246e-07
4.17265e-07
4.18282e-07
4.19298e-07
4.20314e-07
4.21328e-07
4.22342e-07
4.23356e-07
4.24368e-07
4.25379e-07
4.26391e-07
4.274e-07
4.28409e-07
4.29418e-07
4.30425e-07
4.31432e-07
4.32438e-07
4.33443e-07
4.34447e-07
4.36223e-07
1.56239e-07
8.19237e-07
7.7472e-07
8.95215e-07
6.26673e-07
6.78589e-07
7.00935e-07
1.29733e-07
3.93455e-07
3.94698e-07
3.95731e-07
3.96764e-07
3.97795e-07
3.98827e-07
3.99857e-07
4.00886e-07
4.01916e-07
4.02944e-07
4.03972e-07
4.04999e-07
4.06025e-07
4.0705e-07
4.08075e-07
4.09099e-07
4.10122e-07
4.11145e-07
4.12167e-07
4.13188e-07
4.14208e-07
4.15228e-07
4.16246e-07
4.17265e-07
4.18282e-07
4.19298e-07
4.20314e-07
4.21328e-07
4.22342e-07
4.23356e-07
4.24368e-07
4.25379e-07
4.26391e-07
4.274e-07
4.28409e-07
4.29418e-07
4.30425e-07
4.31432e-07
4.32438e-07
4.33443e-07
4.34447e-07
4.36223e-07
6.95416e-07
2.69416e-07
7.5509e-07
8.83971e-07
5.93811e-07
6.32068e-07
7.00917e-07
1.29743e-07
3.93455e-07
3.94698e-07
3.95731e-07
3.96763e-07
3.97795e-07
3.98827e-07
3.99857e-07
4.00886e-07
4.01916e-07
4.02944e-07
4.03972e-07
4.04999e-07
4.06025e-07
4.0705e-07
4.08075e-07
4.09099e-07
4.10122e-07
4.11145e-07
4.12167e-07
4.13188e-07
4.14208e-07
4.15228e-07
4.16246e-07
4.17265e-07
4.18282e-07
4.19298e-07
4.20314e-07
4.21328e-07
4.22342e-07
4.23356e-07
4.24368e-07
4.25379e-07
4.26391e-07
4.274e-07
4.28409e-07
4.29418e-07
4.30425e-07
4.31432e-07
4.32438e-07
4.33443e-07
4.34447e-07
4.36223e-07
1.36732e-07
8.41562e-07
7.62216e-07
8.08171e-07
1.53165e-07
6.865e-07
7.0049e-07
1.29725e-07
3.93453e-07
3.94697e-07
3.95731e-07
3.96763e-07
3.97795e-07
3.98826e-07
3.99857e-07
4.00886e-07
4.01916e-07
4.02944e-07
4.03972e-07
4.04999e-07
4.06025e-07
4.0705e-07
4.08075e-07
4.09099e-07
4.10122e-07
4.11145e-07
4.12167e-07
4.13188e-07
4.14208e-07
4.15228e-07
4.16246e-07
4.17265e-07
4.18282e-07
4.19298e-07
4.20314e-07
4.21328e-07
4.22342e-07
4.23356e-07
4.24368e-07
4.25379e-07
4.26391e-07
4.274e-07
4.28409e-07
4.29418e-07
4.30425e-07
4.31432e-07
4.32438e-07
4.33443e-07
4.34447e-07
4.36223e-07
7.98141e-07
5.9786e-07
7.60127e-07
5.96468e-07
8.90848e-07
6.92787e-07
6.93798e-07
1.2969e-07
3.93453e-07
3.94696e-07
3.9573e-07
3.96763e-07
3.97795e-07
3.98826e-07
3.99857e-07
4.00886e-07
4.01916e-07
4.02944e-07
4.03972e-07
4.04999e-07
4.06025e-07
4.0705e-07
4.08075e-07
4.09099e-07
4.10122e-07
4.11145e-07
4.12167e-07
4.13188e-07
4.14208e-07
4.15228e-07
4.16246e-07
4.17265e-07
4.18282e-07
4.19298e-07
4.20314e-07
4.21328e-07
4.22342e-07
4.23356e-07
4.24368e-07
4.25379e-07
4.26391e-07
4.274e-07
4.28409e-07
4.29418e-07
4.30425e-07
4.31432e-07
4.32438e-07
4.33443e-07
4.34447e-07
4.36223e-07
8.6193e-07
8.6905e-07
8.30517e-07
6.08035e-07
5.3608e-07
6.84276e-07
6.96333e-08
3.92285e-07
3.93661e-07
3.94696e-07
3.9573e-07
3.96763e-07
3.97795e-07
3.98826e-07
3.99857e-07
4.00886e-07
4.01916e-07
4.02944e-07
4.03972e-07
4.04999e-07
4.06025e-07
4.0705e-07
4.08075e-07
4.09099e-07
4.10122e-07
4.11145e-07
4.12167e-07
4.13188e-07
4.14208e-07
4.15228e-07
4.16246e-07
4.17265e-07
4.18282e-07
4.19298e-07
4.20314e-07
4.21328e-07
4.22342e-07
4.23356e-07
4.24368e-07
4.25379e-07
4.26391e-07
4.274e-07
4.28409e-07
4.29418e-07
4.30425e-07
4.31432e-07
4.32438e-07
4.33443e-07
4.34447e-07
4.36223e-07
9.60546e-07
8.79751e-07
8.42623e-07
5.91679e-07
5.48035e-07
5.23467e-07
3.51161e-08
3.92418e-07
3.93662e-07
3.94696e-07
3.9573e-07
3.96763e-07
3.97795e-07
3.98826e-07
3.99857e-07
4.00886e-07
4.01916e-07
4.02944e-07
4.03972e-07
4.04999e-07
4.06025e-07
4.0705e-07
4.08075e-07
4.09099e-07
4.10122e-07
4.11145e-07
4.12167e-07
4.13188e-07
4.14208e-07
4.15228e-07
4.16246e-07
4.17265e-07
4.18282e-07
4.19298e-07
4.20314e-07
4.21328e-07
4.22342e-07
4.23356e-07
4.24368e-07
4.25379e-07
4.26391e-07
4.274e-07
4.28409e-07
4.29418e-07
4.30425e-07
4.31432e-07
4.32438e-07
4.33443e-07
4.34447e-07
4.36223e-07
9.72904e-07
9.05302e-07
3.26269e-07
4.05689e-07
8.66699e-07
6.19266e-07
1.83161e-07
5.04893e-07
5.06383e-07
5.07526e-07
5.08664e-07
5.09802e-07
5.10939e-07
5.12072e-07
5.13205e-07
5.14336e-07
5.15464e-07
5.16592e-07
5.17718e-07
5.18842e-07
5.19964e-07
5.21086e-07
5.22204e-07
5.23322e-07
5.24439e-07
5.25552e-07
5.26665e-07
5.27777e-07
5.28885e-07
5.29994e-07
5.311e-07
5.32204e-07
5.33307e-07
5.34409e-07
5.35507e-07
5.36606e-07
5.37702e-07
5.38796e-07
5.39889e-07
5.40981e-07
5.4207e-07
5.43158e-07
5.44245e-07
5.45328e-07
5.46412e-07
5.47493e-07
5.48572e-07
5.4965e-07
5.50727e-07
5.53041e-07
8.74971e-07
7.41629e-07
4.09174e-07
2.95154e-07
8.69657e-07
7.42253e-07
5.18151e-08
5.0467e-07
5.06381e-07
5.07525e-07
5.08664e-07
5.09802e-07
5.10939e-07
5.12072e-07
5.13205e-07
5.14336e-07
5.15464e-07
5.16592e-07
5.17718e-07
5.18842e-07
5.19964e-07
5.21086e-07
5.22204e-07
5.23322e-07
5.24439e-07
5.25552e-07
5.26665e-07
5.27777e-07
5.28885e-07
5.29994e-07
5.311e-07
5.32204e-07
5.33307e-07
5.34409e-07
5.35507e-07
5.36606e-07
5.37702e-07
5.38796e-07
5.39889e-07
5.40981e-07
5.4207e-07
5.43158e-07
5.44245e-07
5.45328e-07
5.46412e-07
5.47493e-07
5.48572e-07
5.4965e-07
5.50727e-07
5.53041e-07
8.43417e-07
4.23007e-07
3.58798e-07
4.15002e-07
7.38904e-07
7.37537e-07
1.25173e-07
1.84067e-07
5.06038e-07
5.07527e-07
5.08665e-07
5.09803e-07
5.10939e-07
5.12072e-07
5.13205e-07
5.14336e-07
5.15464e-07
5.16592e-07
5.17718e-07
5.18842e-07
5.19964e-07
5.21086e-07
5.22204e-07
5.23322e-07
5.24439e-07
5.25552e-07
5.26665e-07
5.27777e-07
5.28885e-07
5.29994e-07
5.311e-07
5.32204e-07
5.33307e-07
5.34409e-07
5.35508e-07
5.36606e-07
5.37702e-07
5.38796e-07
5.39889e-07
5.40981e-07
5.4207e-07
5.43158e-07
5.44245e-07
5.45328e-07
5.46412e-07
5.47493e-07
5.48572e-07
5.4965e-07
5.50727e-07
5.53041e-07
8.58941e-07
4.77626e-07
7.97127e-07
8.78579e-07
9.12932e-07
6.99707e-07
7.73694e-07
1.83949e-07
5.0604e-07
5.07529e-07
5.08667e-07
5.09804e-07
5.1094e-07
5.12073e-07
5.13205e-07
5.14336e-07
5.15464e-07
5.16592e-07
5.17718e-07
5.18842e-07
5.19964e-07
5.21086e-07
5.22204e-07
5.23322e-07
5.24439e-07
5.25552e-07
5.26665e-07
5.27777e-07
5.28885e-07
5.29994e-07
5.311e-07
5.32204e-07
5.33307e-07
5.34409e-07
5.35508e-07
5.36606e-07
5.37702e-07
5.38796e-07
5.39889e-07
5.40981e-07
5.4207e-07
5.43158e-07
5.44245e-07
5.45329e-07
5.46412e-07
5.47493e-07
5.48572e-07
5.4965e-07
5.50727e-07
5.53041e-07
3.80143e-07
4.34922e-07
7.13972e-07
7.03381e-07
5.18979e-07
6.66396e-07
7.77522e-07
1.83979e-07
5.06043e-07
5.0753e-07
5.08668e-07
5.09804e-07
5.1094e-07
5.12073e-07
5.13205e-07
5.14336e-07
5.15464e-07
5.16592e-07
5.17718e-07
5.18842e-07
5.19964e-07
5.21086e-07
5.22204e-07
5.23322e-07
5.24439e-07
5.25552e-07
5.26665e-07
5.27777e-07
5.28885e-07
5.29994e-07
5.311e-07
5.32204e-07
5.33307e-07
5.34409e-07
5.35508e-07
5.36606e-07
5.37702e-07
5.38796e-07
5.39889e-07
5.40981e-07
5.4207e-07
5.43158e-07
5.44245e-07
5.45329e-07
5.46412e-07
5.47493e-07
5.48572e-07
5.4965e-07
5.50727e-07
5.53041e-07
6.18303e-07
7.41811e-07
6.93744e-07
3.64425e-07
6.23897e-07
6.76138e-07
7.75244e-07
1.84001e-07
5.06042e-07
5.0753e-07
5.08667e-07
5.09804e-07
5.1094e-07
5.12073e-07
5.13205e-07
5.14336e-07
5.15464e-07
5.16592e-07
5.17718e-07
5.18842e-07
5.19964e-07
5.21086e-07
5.22204e-07
5.23322e-07
5.24439e-07
5.25552e-07
5.26665e-07
5.27777e-07
5.28885e-07
5.29994e-07
5.311e-07
5.32204e-07
5.33307e-07
5.34409e-07
5.35508e-07
5.36606e-07
5.37702e-07
5.38796e-07
5.39889e-07
5.40981e-07
5.4207e-07
5.43158e-07
5.44245e-07
5.45329e-07
5.46412e-07
5.47493e-07
5.48572e-07
5.4965e-07
5.50727e-07
5.53041e-07
5.38724e-07
8.27335e-07
6.76823e-07
8.3561e-07
9.19301e-07
7.39137e-07
7.73194e-07
1.83953e-07
5.06038e-07
5.07528e-07
5.08666e-07
5.09803e-07
5.10939e-07
5.12072e-07
5.13205e-07
5.14336e-07
5.15464e-07
5.16592e-07
5.17718e-07
5.18842e-07
5.19964e-07
5.21086e-07
5.22204e-07
5.23322e-07
5.24439e-07
5.25552e-07
5.26665e-07
5.27777e-07
5.28885e-07
5.29994e-07
5.311e-07
5.32204e-07
5.33307e-07
5.34409e-07
5.35508e-07
5.36606e-07
5.37702e-07
5.38796e-07
5.39889e-07
5.40981e-07
5.4207e-07
5.43158e-07
5.44245e-07
5.45329e-07
5.46412e-07
5.47493e-07
5.48572e-07
5.4965e-07
5.50727e-07
5.53041e-07
6.29564e-07
3.06497e-07
8.40488e-07
8.53207e-07
9.23566e-07
7.274e-07
7.70634e-07
1.83948e-07
5.06036e-07
5.07526e-07
5.08665e-07
5.09803e-07
5.10939e-07
5.12072e-07
5.13205e-07
5.14336e-07
5.15464e-07
5.16592e-07
5.17718e-07
5.18842e-07
5.19964e-07
5.21086e-07
5.22204e-07
5.23322e-07
5.24438e-07
5.25552e-07
5.26665e-07
5.27777e-07
5.28885e-07
5.29994e-07
5.311e-07
5.32204e-07
5.33307e-07
5.34409e-07
5.35508e-07
5.36606e-07
5.37702e-07
5.38796e-07
5.39889e-07
5.40981e-07
5.4207e-07
5.43158e-07
5.44245e-07
5.45329e-07
5.46412e-07
5.47493e-07
5.48572e-07
5.4965e-07
5.50727e-07
5.53041e-07
8.87274e-07
8.76438e-07
8.56257e-07
4.16017e-07
4.92497e-07
6.81273e-07
1.0113e-07
5.04673e-07
5.06382e-07
5.07525e-07
5.08664e-07
5.09802e-07
5.10939e-07
5.12072e-07
5.13205e-07
5.14336e-07
5.15464e-07
5.16592e-07
5.17718e-07
5.18842e-07
5.19964e-07
5.21086e-07
5.22204e-07
5.23322e-07
5.24438e-07
5.25552e-07
5.26665e-07
5.27777e-07
5.28885e-07
5.29994e-07
5.311e-07
5.32204e-07
5.33307e-07
5.34409e-07
5.35508e-07
5.36606e-07
5.37702e-07
5.38796e-07
5.39889e-07
5.40981e-07
5.4207e-07
5.43158e-07
5.44245e-07
5.45329e-07
5.46412e-07
5.47493e-07
5.48572e-07
5.4965e-07
5.50727e-07
5.53041e-07
9.59211e-07
9.47858e-07
8.72998e-07
4.0443e-07
5.66803e-07
6.78562e-07
5.18771e-08
5.04893e-07
5.06383e-07
5.07526e-07
5.08664e-07
5.09802e-07
5.10939e-07
5.12072e-07
5.13205e-07
5.14336e-07
5.15464e-07
5.16592e-07
5.17718e-07
5.18842e-07
5.19964e-07
5.21086e-07
5.22204e-07
5.23322e-07
5.24439e-07
5.25552e-07
5.26665e-07
5.27777e-07
5.28885e-07
5.29994e-07
5.311e-07
5.32204e-07
5.33307e-07
5.34409e-07
5.35508e-07
5.36606e-07
5.37702e-07
5.38796e-07
5.39889e-07
5.40981e-07
5.4207e-07
5.43158e-07
5.44245e-07
5.45329e-07
5.46412e-07
5.47493e-07
5.48572e-07
5.4965e-07
5.50727e-07
5.53041e-07
9.55988e-07
8.75047e-07
6.37655e-07
2.09507e-07
6.79364e-07
5.73269e-07
1.83158e-07
3.92419e-07
3.93662e-07
3.94696e-07
3.9573e-07
3.96763e-07
3.97795e-07
3.98826e-07
3.99857e-07
4.00886e-07
4.01916e-07
4.02944e-07
4.03972e-07
4.04999e-07
4.06025e-07
4.0705e-07
4.08075e-07
4.09099e-07
4.10122e-07
4.11145e-07
4.12167e-07
4.13188e-07
4.14208e-07
4.15228e-07
4.16246e-07
4.17265e-07
4.18282e-07
4.19298e-07
4.20314e-07
4.21328e-07
4.22342e-07
4.23356e-07
4.24368e-07
4.25379e-07
4.26391e-07
4.274e-07
4.28409e-07
4.29418e-07
4.30425e-07
4.31432e-07
4.32438e-07
4.33443e-07
4.34447e-07
4.36223e-07
9.16176e-07
6.87601e-07
3.54426e-07
4.90858e-07
7.1374e-07
7.54309e-07
5.18137e-08
3.92284e-07
3.93661e-07
3.94696e-07
3.9573e-07
3.96763e-07
3.97795e-07
3.98826e-07
3.99857e-07
4.00886e-07
4.01916e-07
4.02944e-07
4.03972e-07
4.04999e-07
4.06025e-07
4.0705e-07
4.08075e-07
4.09099e-07
4.10122e-07
4.11145e-07
4.12167e-07
4.13188e-07
4.14208e-07
4.15228e-07
4.16246e-07
4.17265e-07
4.18282e-07
4.19298e-07
4.20314e-07
4.21328e-07
4.22342e-07
4.23356e-07
4.24368e-07
4.25379e-07
4.26391e-07
4.274e-07
4.28409e-07
4.29418e-07
4.30425e-07
4.31432e-07
4.32438e-07
4.33443e-07
4.34447e-07
4.36223e-07
8.61516e-07
3.79586e-07
5.373e-07
2.33322e-07
8.69064e-07
7.5846e-07
1.25067e-07
1.84071e-07
3.93453e-07
3.94697e-07
3.9573e-07
3.96763e-07
3.97795e-07
3.98826e-07
3.99857e-07
4.00886e-07
4.01916e-07
4.02944e-07
4.03972e-07
4.04999e-07
4.06025e-07
4.0705e-07
4.08075e-07
4.09099e-07
4.10122e-07
4.11145e-07
4.12167e-07
4.13188e-07
4.14208e-07
4.15228e-07
4.16246e-07
4.17265e-07
4.18282e-07
4.19298e-07
4.20314e-07
4.21328e-07
4.22342e-07
4.23356e-07
4.24368e-07
4.25379e-07
4.26391e-07
4.274e-07
4.28409e-07
4.29418e-07
4.30425e-07
4.31432e-07
4.32438e-07
4.33443e-07
4.34447e-07
4.36223e-07
8.49011e-07
9.00642e-07
7.73888e-07
4.45811e-07
9.01434e-07
6.85481e-07
7.73397e-07
1.83954e-07
3.93454e-07
3.94697e-07
3.95731e-07
3.96763e-07
3.97795e-07
3.98826e-07
3.99857e-07
4.00886e-07
4.01916e-07
4.02944e-07
4.03972e-07
4.04999e-07
4.06025e-07
4.0705e-07
4.08075e-07
4.09099e-07
4.10122e-07
4.11145e-07
4.12167e-07
4.13188e-07
4.14208e-07
4.15228e-07
4.16246e-07
4.17265e-07
4.18282e-07
4.19298e-07
4.20314e-07
4.21328e-07
4.22342e-07
4.23356e-07
4.24368e-07
4.25379e-07
4.26391e-07
4.274e-07
4.28409e-07
4.29418e-07
4.30425e-07
4.31432e-07
4.32438e-07
4.33443e-07
4.34447e-07
4.36223e-07
7.82017e-07
3.88033e-07
5.56793e-07
4.18328e-07
5.04398e-07
6.70148e-07
7.77256e-07
1.83981e-07
3.93455e-07
3.94698e-07
3.95731e-07
3.96763e-07
3.97795e-07
3.98827e-07
3.99857e-07
4.00886e-07
4.01916e-07
4.02944e-07
4.03972e-07
4.04999e-07
4.06025e-07
4.0705e-07
4.08075e-07
4.09099e-07
4.10122e-07
4.11145e-07
4.12167e-07
4.13188e-07
4.14208e-07
4.15228e-07
4.16246e-07
4.17265e-07
4.18282e-07
4.19298e-07
4.20314e-07
4.21328e-07
4.22342e-07
4.23356e-07
4.24368e-07
4.25379e-07
4.26391e-07
4.274e-07
4.28409e-07
4.29418e-07
4.30425e-07
4.31432e-07
4.32438e-07
4.33443e-07
4.34447e-07
4.36223e-07
9.16967e-07
8.96625e-07
3.73612e-07
7.15238e-07
4.87076e-07
5.60216e-07
7.75311e-07
1.84003e-07
3.93455e-07
3.94698e-07
3.95731e-07
3.96763e-07
3.97795e-07
3.98827e-07
3.99857e-07
4.00886e-07
4.01916e-07
4.02944e-07
4.03972e-07
4.04999e-07
4.06025e-07
4.0705e-07
4.08075e-07
4.09099e-07
4.10122e-07
4.11145e-07
4.12167e-07
4.13188e-07
4.14208e-07
4.15228e-07
4.16246e-07
4.17265e-07
4.18282e-07
4.19298e-07
4.20314e-07
4.21328e-07
4.22342e-07
4.23356e-07
4.24368e-07
4.25379e-07
4.26391e-07
4.274e-07
4.28409e-07
4.29418e-07
4.30425e-07
4.31432e-07
4.32438e-07
4.33443e-07
4.34447e-07
4.36223e-07
7.93137e-07
9.19393e-07
4.808e-07
7.71792e-07
7.73256e-07
7.31043e-07
7.73653e-07
1.83957e-07
3.93453e-07
3.94697e-07
3.95731e-07
3.96763e-07
3.97795e-07
3.98826e-07
3.99857e-07
4.00886e-07
4.01916e-07
4.02944e-07
4.03972e-07
4.04999e-07
4.06025e-07
4.0705e-07
4.08075e-07
4.09099e-07
4.10122e-07
4.11145e-07
4.12167e-07
4.13188e-07
4.14208e-07
4.15228e-07
4.16246e-07
4.17265e-07
4.18282e-07
4.19298e-07
4.20314e-07
4.21328e-07
4.22342e-07
4.23356e-07
4.24368e-07
4.25379e-07
4.26391e-07
4.274e-07
4.28409e-07
4.29418e-07
4.30425e-07
4.31432e-07
4.32438e-07
4.33443e-07
4.34447e-07
4.36223e-07
3.27803e-07
9.00651e-07
8.9838e-07
6.84354e-07
4.44316e-07
7.34318e-07
7.70757e-07
1.83952e-07
3.93453e-07
3.94696e-07
3.9573e-07
3.96763e-07
3.97795e-07
3.98826e-07
3.99857e-07
4.00886e-07
4.01916e-07
4.02944e-07
4.03972e-07
4.04999e-07
4.06025e-07
4.0705e-07
4.08075e-07
4.09099e-07
4.10122e-07
4.11145e-07
4.12167e-07
4.13188e-07
4.14208e-07
4.15228e-07
4.16246e-07
4.17265e-07
4.18282e-07
4.19298e-07
4.20314e-07
4.21328e-07
4.22342e-07
4.23356e-07
4.24368e-07
4.25379e-07
4.26391e-07
4.274e-07
4.28409e-07
4.29418e-07
4.30425e-07
4.31432e-07
4.32438e-07
4.33443e-07
4.34447e-07
4.36223e-07
9.47718e-07
9.56405e-07
9.03745e-07
7.85817e-07
8.97875e-07
7.10129e-07
1.01098e-07
3.92285e-07
3.93661e-07
3.94696e-07
3.9573e-07
3.96763e-07
3.97795e-07
3.98826e-07
3.99857e-07
4.00886e-07
4.01916e-07
4.02944e-07
4.03972e-07
4.04999e-07
4.06025e-07
4.0705e-07
4.08075e-07
4.09099e-07
4.10122e-07
4.11145e-07
4.12167e-07
4.13188e-07
4.14208e-07
4.15228e-07
4.16246e-07
4.17265e-07
4.18282e-07
4.19298e-07
4.20314e-07
4.21328e-07
4.22342e-07
4.23356e-07
4.24368e-07
4.25379e-07
4.26391e-07
4.274e-07
4.28409e-07
4.29418e-07
4.30425e-07
4.31432e-07
4.32438e-07
4.33443e-07
4.34447e-07
4.36223e-07
9.61521e-07
9.70178e-07
8.80775e-07
4.29888e-07
7.9509e-07
7.42811e-07
5.18706e-08
3.92418e-07
3.93662e-07
3.94696e-07
3.9573e-07
3.96763e-07
3.97795e-07
3.98826e-07
3.99857e-07
4.00886e-07
4.01916e-07
4.02944e-07
4.03972e-07
4.04999e-07
4.06025e-07
4.0705e-07
4.08075e-07
4.09099e-07
4.10122e-07
4.11145e-07
4.12167e-07
4.13188e-07
4.14208e-07
4.15228e-07
4.16246e-07
4.17265e-07
4.18282e-07
4.19298e-07
4.20314e-07
4.21328e-07
4.22342e-07
4.23356e-07
4.24368e-07
4.25379e-07
4.26391e-07
4.274e-07
4.28409e-07
4.29418e-07
4.30425e-07
4.31432e-07
4.32438e-07
4.33443e-07
4.34447e-07
4.36223e-07
3.98368e-08
6.85387e-07
4.34302e-08
7.11944e-07
5.92462e-08
7.27113e-07
6.41943e-08
5.41885e-08
6.84498e-07
3.94916e-07
7.53553e-07
8.02662e-08
7.24131e-07
4.79368e-07
6.94698e-07
6.91047e-07
7.00586e-07
7.39681e-07
7.68721e-07
7.58906e-07
7.77073e-07
6.99955e-07
6.8366e-07
7.01023e-07
7.10386e-07
7.75496e-07
7.0321e-07
7.73821e-07
6.98822e-07
6.7543e-07
7.00162e-07
6.81143e-07
7.73501e-07
7.44539e-07
7.77051e-07
6.99218e-07
6.77532e-07
7.00043e-07
6.99778e-07
7.75321e-07
7.40304e-07
7.7428e-07
6.99688e-07
6.90077e-07
7.01384e-07
7.61625e-07
7.74031e-07
7.12743e-07
7.76424e-07
7.00826e-07
6.51833e-07
6.96182e-07
7.40797e-07
7.75411e-07
6.13507e-07
7.69063e-07
6.93125e-07
6.19347e-07
8.73108e-08
7.04605e-07
7.67756e-07
6.76434e-07
1.25465e-07
6.17919e-08
4.28996e-07
3.82514e-08
6.49688e-07
8.99815e-08
6.5017e-07
5.65904e-08
5.94641e-08
7.29077e-07
6.43746e-08
5.63556e-07
5.92385e-08
6.99082e-07
6.44522e-08
8.04123e-08
7.30527e-07
4.78683e-07
7.39846e-07
8.02653e-08
7.04464e-07
4.80892e-07
7.68272e-07
7.60991e-07
7.77158e-07
7.50538e-07
7.68714e-07
7.46288e-07
7.76842e-07
7.75747e-07
6.91686e-07
7.7298e-07
6.89809e-07
7.7563e-07
7.08636e-07
7.76068e-07
7.74322e-07
7.52954e-07
7.74758e-07
6.57222e-07
7.73725e-07
7.38995e-07
7.75528e-07
7.74186e-07
7.39275e-07
7.74618e-07
5.84894e-07
7.7688e-07
7.59749e-07
7.76688e-07
7.72909e-07
7.20382e-07
7.76737e-07
6.85352e-07
7.7475e-07
6.7516e-07
7.76681e-07
7.75399e-07
6.1683e-07
7.69097e-07
7.36059e-07
7.7588e-07
6.46893e-07
7.6957e-07
7.67841e-07
6.51337e-07
1.25465e-07
6.76491e-07
7.67601e-07
6.9563e-07
1.25474e-07
8.99847e-08
6.57079e-07
5.66233e-08
7.33979e-07
8.98737e-08
6.88516e-07
5.67038e-08
5.8883e-08
6.69541e-07
6.41188e-08
5.62244e-07
3.98241e-08
6.16618e-07
4.33744e-08
8.01477e-08
7.29439e-07
4.83158e-07
6.83683e-07
5.42161e-08
6.8542e-07
3.97783e-07
7.6887e-07
7.5786e-07
7.76742e-07
6.55456e-07
6.94495e-07
6.90586e-07
7.00633e-07
7.75458e-07
7.00246e-07
7.74503e-07
6.6033e-07
6.98511e-07
6.58838e-07
7.00832e-07
7.73222e-07
7.38689e-07
7.74718e-07
6.83159e-07
6.99498e-07
6.65171e-07
7.00039e-07
7.75869e-07
7.65882e-07
7.75152e-07
5.53654e-07
6.99875e-07
6.86187e-07
7.00059e-07
7.73392e-07
6.84557e-07
7.75112e-07
6.76704e-07
6.99862e-07
6.82097e-07
6.9993e-07
7.75941e-07
6.75717e-07
7.7036e-07
6.77995e-07
7.0115e-07
6.65456e-07
6.95886e-07
7.67751e-07
7.21646e-07
1.25459e-07
6.82571e-07
6.93093e-07
6.83077e-07
8.73214e-08
8.98234e-08
6.76193e-07
5.66406e-08
6.27053e-07
6.16033e-08
6.60216e-07
3.81901e-08
8.85805e-07
7.18018e-07
8.92602e-07
8.47704e-07
8.99639e-07
8.17144e-07
9.09645e-07
7.67449e-07
6.96882e-07
6.95321e-07
7.35672e-07
7.74201e-07
6.9575e-07
7.69559e-07
1.29657e-07
3.4975e-08
1.29566e-07
1.83162e-07
1.84014e-07
5.17982e-08
1.83832e-07
8.69969e-07
6.54909e-07
8.63503e-07
7.94001e-07
9.14112e-07
3.07427e-07
8.74865e-07
7.28077e-07
6.98032e-07
6.70842e-07
7.50746e-07
7.71485e-07
7.17079e-07
6.81841e-07
1.29566e-07
4.89359e-08
1.29508e-07
5.18145e-08
1.83832e-07
7.23275e-08
1.83714e-07
8.94514e-07
8.84731e-07
8.71976e-07
5.57082e-07
9.12538e-07
8.93299e-07
9.08758e-07
7.7245e-07
6.96958e-07
6.3408e-07
7.64689e-07
7.72661e-07
6.64959e-07
6.97454e-07
3.52934e-08
6.93752e-07
3.52772e-08
1.25174e-07
5.20165e-08
7.70688e-07
5.19821e-08
8.64254e-07
8.73066e-07
8.94332e-07
8.53242e-07
8.382e-07
8.15733e-07
8.66405e-07
6.47549e-07
6.92433e-07
6.82163e-07
7.41955e-07
7.56285e-07
6.94232e-07
5.2935e-07
3.52818e-08
6.99485e-07
3.57506e-08
7.73624e-07
5.19919e-08
7.73054e-07
5.29838e-08
6.39186e-07
6.19672e-07
4.66735e-07
5.28801e-07
4.52732e-07
4.1101e-07
4.83037e-07
7.50973e-07
6.99581e-07
6.62787e-07
6.98672e-07
7.7433e-07
7.01491e-07
6.89698e-07
3.67129e-08
7.00996e-07
3.88443e-08
7.77243e-07
5.44203e-08
7.77411e-07
5.75516e-08
3.4138e-07
3.82591e-07
6.14189e-07
4.97565e-07
2.74945e-07
4.75656e-07
8.06696e-07
7.63207e-07
6.93232e-07
6.95294e-07
7.12485e-07
7.59671e-07
7.53196e-07
6.94816e-07
3.93454e-08
7.00647e-07
3.66155e-08
7.75576e-07
5.83075e-08
7.75552e-07
5.42636e-08
8.84053e-07
8.86034e-07
8.67316e-07
8.56518e-07
9.10197e-07
8.65583e-07
9.05276e-07
7.69169e-07
6.97838e-07
6.89772e-07
7.66332e-07
7.74089e-07
7.4296e-07
6.96127e-07
3.57278e-08
6.98939e-07
3.52812e-08
7.72086e-07
5.29321e-08
7.74383e-07
5.19906e-08
8.80699e-07
7.8242e-07
8.99482e-07
8.69287e-07
8.92308e-07
8.73566e-07
8.88956e-07
7.23371e-07
6.99331e-07
6.99779e-07
7.26418e-07
7.75115e-07
7.17062e-07
6.51664e-07
3.52657e-08
1.13261e-07
3.50725e-08
7.70712e-07
5.19817e-08
1.61872e-07
5.20162e-08
6.18794e-07
6.55169e-07
3.20008e-07
4.8471e-07
6.52613e-07
4.16617e-07
4.92199e-07
7.56888e-07
6.93905e-07
6.74743e-07
7.28845e-07
7.58346e-07
6.98058e-07
6.94503e-07
1.29509e-07
3.57787e-08
1.29566e-07
1.01078e-07
1.83716e-07
5.29841e-08
1.83832e-07
6.16799e-07
5.52341e-07
2.65871e-07
4.10451e-07
5.869e-07
5.89489e-07
5.83036e-07
7.38018e-07
6.32193e-07
5.67265e-07
5.87677e-07
7.06741e-07
5.5693e-07
6.63709e-07
1.29566e-07
3.48045e-08
1.29566e-07
5.18705e-08
1.83832e-07
5.12774e-08
1.83832e-07
8.87192e-07
7.29295e-07
8.59608e-07
7.7378e-07
7.49337e-07
4.53034e-07
6.67424e-07
7.33124e-07
7.57715e-07
7.48169e-07
5.50607e-07
7.45432e-07
7.26388e-07
7.53311e-07
1.84009e-07
5.17987e-08
1.83827e-07
1.83157e-07
1.84009e-07
5.17991e-08
1.83827e-07
9.06486e-07
6.92247e-07
9.05826e-07
8.53503e-07
9.25093e-07
8.09735e-07
8.71954e-07
6.41367e-07
7.70362e-07
6.73668e-07
7.42871e-07
6.60214e-07
7.64793e-07
6.4888e-07
1.83827e-07
7.24155e-08
1.83708e-07
5.18141e-08
1.83827e-07
7.24101e-08
1.83709e-07
8.55568e-07
9.0857e-07
9.21519e-07
9.17194e-07
9.12014e-07
8.55555e-07
9.25937e-07
7.61938e-07
7.63012e-07
7.21151e-07
7.08249e-07
7.68372e-07
7.64635e-07
7.18166e-07
5.2016e-08
7.70483e-07
5.19818e-08
1.25089e-07
5.20161e-08
7.7026e-07
5.19818e-08
8.485e-07
9.17709e-07
8.99136e-07
8.63612e-07
7.86936e-07
8.66991e-07
8.44865e-07
6.31293e-07
7.16082e-07
4.35827e-07
6.80187e-07
6.29062e-07
7.2167e-07
4.39961e-07
5.19913e-08
7.73843e-07
5.3037e-08
7.73131e-07
5.19915e-08
7.73162e-07
5.30249e-08
4.40355e-07
3.82195e-07
4.52926e-07
5.10574e-07
7.49515e-07
2.00181e-07
6.56482e-07
7.24228e-07
7.55602e-07
7.00092e-07
6.57039e-07
7.21746e-07
7.52804e-07
6.19239e-07
5.44726e-08
7.76448e-07
5.76058e-08
7.76837e-07
5.44643e-08
7.76611e-07
5.76222e-08
2.88433e-07
7.13746e-07
8.46129e-07
5.3156e-07
6.69001e-07
7.9576e-07
8.70863e-07
7.52505e-07
7.52294e-07
6.38343e-07
6.47348e-07
7.53704e-07
7.49509e-07
5.39002e-07
5.83812e-08
7.73868e-07
5.43053e-08
7.74826e-07
5.83686e-08
7.74294e-07
5.43067e-08
8.69189e-07
8.09097e-07
7.94836e-07
8.53456e-07
9.02797e-07
6.94153e-07
8.93407e-07
7.67485e-07
7.69578e-07
6.39872e-07
6.67764e-07
7.64121e-07
7.66283e-07
6.83779e-07
5.29827e-08
7.74462e-07
5.19903e-08
7.76765e-07
5.29802e-08
7.74225e-07
5.19903e-08
8.77238e-07
8.06845e-07
9.12457e-07
7.88116e-07
8.64742e-07
8.89532e-07
8.25748e-07
7.21811e-07
7.70955e-07
6.01419e-07
7.18284e-07
7.20089e-07
7.68392e-07
5.62265e-07
5.19813e-08
1.6188e-07
5.20156e-08
7.70728e-07
5.19813e-08
1.60608e-07
5.20157e-08
7.88463e-07
3.6326e-07
7.6827e-07
6.63764e-07
8.20853e-07
4.55066e-07
7.86393e-07
7.59528e-07
7.2823e-07
5.14216e-07
6.47378e-07
7.4695e-07
7.20457e-07
5.09511e-07
1.83711e-07
5.30388e-08
1.83827e-07
1.01141e-07
1.83711e-07
5.30355e-08
1.83827e-07
5.88902e-07
8.28987e-07
7.6134e-07
8.73996e-07
7.05368e-07
8.79905e-07
8.68119e-07
6.92418e-07
7.26172e-07
3.70666e-07
6.93813e-07
7.14186e-07
7.3684e-07
3.70255e-07
1.83827e-07
5.15702e-08
1.83827e-07
5.18771e-08
1.83827e-07
5.1305e-08
1.83827e-07
3.78999e-07
4.27408e-07
5.59048e-07
5.75838e-07
2.42431e-07
4.6875e-07
4.80387e-07
7.38436e-07
7.48806e-07
6.20498e-07
5.89869e-07
7.28223e-07
6.15328e-07
7.54061e-07
1.84014e-07
5.17977e-08
1.83832e-07
1.29176e-07
1.29657e-07
3.49217e-08
1.29567e-07
9.17621e-07
8.51209e-07
8.33105e-07
4.9871e-07
8.85087e-07
8.63002e-07
6.50587e-07
6.23142e-07
7.6834e-07
6.04381e-07
7.1637e-07
6.13852e-07
7.66785e-07
5.45036e-07
1.83832e-07
7.22966e-08
1.83714e-07
3.51553e-08
1.29567e-07
4.89279e-08
1.29508e-07
8.77921e-07
9.23602e-07
8.83118e-07
8.68586e-07
8.77708e-07
8.88539e-07
8.86338e-07
7.61988e-07
7.67759e-07
7.48444e-07
7.52725e-07
7.61944e-07
7.64416e-07
7.14033e-07
5.20165e-08
7.70283e-07
5.19821e-08
8.70422e-08
3.51956e-08
6.93788e-07
3.52773e-08
7.61725e-07
9.19813e-07
9.05321e-07
8.68186e-07
6.58627e-07
8.73581e-07
8.88537e-07
6.3987e-07
7.11539e-07
4.34353e-07
6.9868e-07
6.31312e-07
7.17981e-07
4.26953e-07
5.19918e-08
7.74371e-07
5.29766e-08
6.9875e-07
3.52808e-08
7.00663e-07
3.57506e-08
8.89595e-07
2.13248e-07
5.94149e-07
7.59277e-07
8.69147e-07
1.31657e-07
7.3122e-07
7.73835e-07
7.62477e-07
6.7621e-07
7.27067e-07
7.56412e-07
7.64782e-07
6.90467e-07
5.44153e-08
7.76851e-07
5.75612e-08
7.00808e-07
3.67105e-08
7.01153e-07
3.88321e-08
8.28961e-07
8.37896e-07
8.42598e-07
5.27134e-07
8.41191e-07
7.65936e-07
7.43658e-07
6.96684e-07
7.57851e-07
5.36145e-07
5.51001e-07
6.89707e-07
7.59859e-07
4.76841e-07
5.83133e-08
7.75068e-07
5.42561e-08
7.01133e-07
3.93221e-08
7.00568e-07
3.66159e-08
8.29124e-07
3.25904e-07
5.55626e-07
6.08995e-07
6.44603e-07
4.33468e-07
5.92379e-07
7.72746e-07
7.73119e-07
7.38275e-07
7.30418e-07
7.68852e-07
7.72815e-07
7.52337e-07
5.29227e-08
7.74307e-07
5.19907e-08
7.00606e-07
3.57247e-08
6.98889e-07
3.52812e-08
7.32154e-07
7.89103e-07
8.76165e-07
2.77032e-07
6.1575e-07
6.37409e-07
8.55e-07
7.66994e-07
7.66731e-07
6.34281e-07
7.22398e-07
7.58387e-07
7.67343e-07
6.50209e-07
5.19816e-08
1.59986e-07
5.20161e-08
6.93849e-07
3.52541e-08
1.1177e-07
3.50725e-08
8.61233e-07
7.49836e-07
8.77104e-07
8.92117e-07
7.90257e-07
7.7425e-07
8.71525e-07
7.63318e-07
7.3753e-07
6.93243e-07
6.83802e-07
7.60285e-07
7.50577e-07
6.8376e-07
1.83716e-07
5.29812e-08
1.83832e-07
6.96416e-08
1.29509e-07
3.57675e-08
1.29567e-07
8.57057e-07
9.1429e-07
9.09811e-07
6.81276e-07
7.03648e-07
8.84557e-07
8.85263e-07
7.51504e-07
7.58405e-07
3.91675e-07
7.21439e-07
7.36982e-07
7.59761e-07
4.56632e-07
1.83831e-07
5.12914e-08
1.83832e-07
3.51558e-08
1.29566e-07
3.48226e-08
1.29567e-07
1.98365e-07
1.85806e-07
3.79666e-08
5.87708e-08
5.60188e-08
1.41975e-07
2.52488e-07
7.66617e-07
6.70829e-07
6.96347e-07
7.49311e-07
7.23512e-07
7.68643e-07
6.96071e-07
3.11318e-07
4.14161e-08
2.79007e-07
6.3855e-08
6.11064e-08
3.65627e-07
2.36671e-07
7.58786e-07
7.46622e-07
7.61214e-07
7.48947e-07
7.68936e-07
7.49973e-07
7.65858e-07
1.97987e-07
5.89934e-08
2.46352e-07
5.62422e-08
5.61388e-08
1.97357e-07
2.49802e-07
7.63903e-07
7.37701e-07
6.36396e-07
7.61436e-07
6.61969e-07
7.64362e-07
7.61078e-07
3.07912e-07
6.4018e-08
6.14162e-08
3.60655e-07
6.13024e-08
3.63683e-07
3.06008e-07
7.67221e-07
5.89113e-07
7.7483e-08
7.96082e-08
6.59574e-07
1.1187e-07
6.93375e-07
7.63235e-07
6.90339e-07
6.93246e-07
7.46875e-07
7.58439e-07
7.65541e-07
6.9506e-07
7.7081e-07
1.45374e-07
6.99437e-07
4.86947e-07
2.02585e-07
7.74878e-07
6.96458e-07
7.0598e-07
7.68288e-07
7.6956e-07
6.71539e-07
7.681e-07
6.88149e-07
6.87916e-07
7.6421e-07
8.00092e-08
6.36546e-07
1.11899e-07
6.45358e-07
1.11892e-07
7.60922e-07
7.56542e-07
6.81794e-07
7.65573e-07
7.58624e-07
7.54656e-07
7.61753e-07
7.51701e-07
7.70065e-07
4.82039e-07
2.02907e-07
7.75096e-07
2.02572e-07
7.75018e-07
7.71213e-07
7.71498e-07
7.00377e-07
6.98725e-07
7.69736e-07
7.74592e-07
7.74401e-07
6.98665e-07
7.72282e-07
6.93098e-07