/*--------------------------------*- C++ -*----------------------------------*\
| =========                 |                                                 |
| \\      /  F ield         | OpenFOAM: The Open Source CFD Toolbox           |
|  \\    /   O peration     | Version:  5.0                                   |
|   \\  /    A nd           | Web:      www.OpenFOAM.org                      |
|    \\/     M anipulation  |                                                 |
\*---------------------------------------------------------------------------*/
FoamFile
{
    version     2.0;
    format      ascii;
    class       volVectorField;
    location    "2.6";
    object      U;
}
// * * * * * * * * * * * * * * * * * * * * * * * * * * * * * * * * * * * * * //

dimensions      [0 1 -1 0 0 0 0];

internalField   nonuniform List<vector> 
9340
(
(0.00669971 0.0031282 0.00032764)
(0.00307314 0.00829803 0.000489062)
(0.0121063 0.00668178 -0.00101629)
(0.0063 0.000970661 0.000515447)
(7.1812e-05 0.0113335 -0.00143098)
(-0.00281054 -0.00426613 -4.471e-05)
(0.000515115 7.79289e-05 4.61281e-06)
(0.000815598 5.20523e-05 -1.96906e-06)
(0.000794012 3.24222e-05 -1.10755e-07)
(0.000803506 1.81869e-05 8.99315e-08)
(0.000804297 1.12628e-05 9.5825e-08)
(0.000804074 6.75575e-06 5.13035e-08)
(0.000803581 4.23614e-06 -2.74457e-09)
(0.00080246 2.60556e-06 5.13003e-08)
(0.000800947 1.64853e-06 4.29673e-08)
(0.000799357 1.02694e-06 1.00266e-08)
(0.000797858 4.96032e-07 5.41793e-08)
(0.000796764 1.42132e-07 6.43433e-08)
(0.000794714 -2.10256e-07 1.89352e-08)
(0.000792659 -8.29712e-09 2.06582e-07)
(0.000791592 -4.04808e-08 6.37775e-08)
(0.000790042 6.73816e-08 2.90147e-08)
(0.000788601 5.13614e-08 8.43153e-08)
(0.000787242 9.98728e-08 4.53122e-08)
(0.000785718 2.34126e-07 6.0576e-08)
(0.000783997 5.89983e-07 6.86609e-08)
(0.000782386 3.14749e-07 4.45473e-08)
(0.000781138 1.66151e-07 4.71912e-08)
(0.000779513 2.52283e-07 5.41033e-09)
(0.000777942 -1.12997e-07 2.13713e-07)
(0.00077632 -4.31634e-07 7.60551e-08)
(0.000774582 -4.8502e-07 -6.19137e-08)
(0.000773145 -3.19123e-07 8.25161e-08)
(0.000772176 6.51256e-08 8.69245e-08)
(0.000770958 1.87038e-07 5.23573e-08)
(0.000769087 2.24823e-07 6.56229e-08)
(0.000767461 1.48469e-07 2.97066e-08)
(0.000765825 2.50821e-07 -2.23721e-09)
(0.000764796 4.9382e-07 6.93066e-08)
(0.000763733 1.78743e-07 9.37893e-08)
(0.000762026 1.89328e-08 2.4992e-08)
(0.000760725 -2.43059e-08 6.67352e-08)
(0.000759542 -2.76025e-07 5.77471e-08)
(0.000757493 -4.21695e-07 -8.16152e-09)
(0.000755819 -2.28837e-07 3.98121e-08)
(0.000754696 -1.37914e-07 4.44187e-08)
(0.000753384 -6.46383e-08 5.11784e-08)
(0.000752198 -1.38888e-07 4.22234e-08)
(0.000750576 -3.30567e-07 4.48113e-08)
(0.000748982 -3.87736e-07 7.29886e-09)
(-0.00298557 0.000330383 0.000464047)
(0.0090096 -0.00714331 -0.000696819)
(-0.0100242 -0.0217819 -0.000501651)
(-0.00592171 -0.0415302 0.00445135)
(-0.0162079 -0.00861763 -0.000905924)
(-0.0025316 0.00253061 0.000259912)
(0.000338759 2.79779e-05 1.52007e-05)
(0.000792975 5.79484e-06 -2.56928e-06)
(0.000786057 3.16313e-05 -1.73282e-07)
(0.000794304 1.0083e-05 -3.91332e-08)
(0.000799447 7.88137e-06 1.83222e-08)
(0.000800748 4.62111e-06 2.79933e-08)
(0.000801229 2.92897e-06 3.99858e-08)
(0.000800812 1.7282e-06 4.48602e-08)
(0.000799986 1.0161e-06 4.71172e-08)
(0.000798777 5.47592e-07 4.7575e-08)
(0.000797307 5.1038e-07 4.72952e-08)
(0.000795679 4.28713e-07 7.22177e-08)
(0.000794768 1.63212e-08 1.59212e-07)
(0.000793611 1.51826e-07 2.76777e-08)
(0.000791713 2.30371e-07 6.30367e-08)
(0.000790109 1.6404e-07 4.22543e-08)
(0.000788545 4.05241e-07 6.52065e-08)
(0.000787178 2.61167e-07 1.81375e-08)
(0.000785839 1.84459e-07 4.7646e-08)
(0.000784044 -6.07434e-08 3.53744e-08)
(0.000782273 -5.27384e-08 2.90125e-08)
(0.000780959 -1.84003e-07 4.32958e-08)
(0.000779277 -5.24142e-07 7.18387e-08)
(0.000777432 -4.58146e-07 4.22097e-08)
(0.000776168 -3.07947e-07 -1.23609e-07)
(0.000774893 -8.78821e-08 2.28453e-09)
(0.00077384 5.44111e-07 1.44763e-07)
(0.000772525 6.14713e-07 8.80497e-08)
(0.000770628 2.18063e-07 4.45322e-08)
(0.000769116 1.39954e-07 3.33511e-08)
(0.0007678 2.21826e-07 5.43737e-08)
(0.000766525 3.20049e-07 2.5168e-09)
(0.000764698 5.63764e-07 1.26844e-07)
(0.000762884 3.15927e-07 3.23187e-07)
(0.000761622 4.78128e-08 5.94189e-08)
(0.000760181 -1.35098e-07 6.22747e-08)
(0.000758643 -4.31056e-07 8.14818e-08)
(0.000757753 -5.64799e-07 1.17737e-07)
(0.000756579 -9.37194e-08 5.43649e-08)
(0.00075492 -8.56204e-08 5.41604e-08)
(0.000753465 8.54868e-08 5.53876e-08)
(0.00075196 -2.99919e-08 1.71235e-10)
(0.000750549 -1.63973e-07 -2.54496e-08)
(0.000749517 -2.04921e-07 1.08588e-07)
(-0.00921923 -0.00798693 0.000716269)
(-0.0154709 0.00823711 -0.00212472)
(-0.00263898 -0.0211181 -0.00096913)
(0.0600186 0.0547339 -0.00494338)
(0.0245978 0.00365558 -0.00976764)
(-0.000449838 -0.00249037 1.81406e-05)
(0.000819594 -0.000132363 -9.46383e-06)
(0.000421502 -1.51463e-05 -4.92434e-07)
(0.000838076 8.68396e-06 -1.33415e-06)
(0.000773954 -3.03465e-06 -4.9904e-07)
(0.000797448 5.90832e-07 2.15518e-07)
(0.000797866 3.26207e-07 3.95504e-08)
(0.000799956 3.29275e-07 7.00553e-08)
(0.000800063 2.28913e-07 5.26862e-08)
(0.000799469 1.26379e-07 5.43198e-08)
(0.000798724 2.64678e-08 5.85325e-08)
(0.000797709 -5.08804e-08 -2.44885e-08)
(0.000796146 7.2183e-08 5.76673e-08)
(0.000794367 2.2906e-07 6.83497e-08)
(0.000792926 3.85673e-08 4.51247e-08)
(0.000791606 -2.06043e-08 3.76226e-08)
(0.000790257 1.1822e-08 4.60418e-08)
(0.000788719 5.64214e-09 3.51243e-08)
(0.000786962 -6.66759e-08 1.68531e-08)
(0.000785313 -1.96099e-07 3.15816e-08)
(0.000783699 -1.92362e-07 9.0691e-08)
(0.000782233 -1.68651e-07 5.63274e-08)
(0.000780552 -1.06138e-07 5.65324e-08)
(0.000779174 -1.68419e-07 -4.94306e-09)
(0.000778217 2.54375e-07 6.0694e-08)
(0.000776787 4.13908e-07 2.39198e-07)
(0.000775647 4.43259e-07 6.06165e-08)
(0.000774021 4.3346e-07 -2.54612e-08)
(0.000771765 1.29342e-07 7.50965e-09)
(0.000770362 2.66849e-09 8.40504e-08)
(0.00076909 7.76281e-08 5.22324e-08)
(0.000767684 3.03318e-08 7.18378e-08)
(0.000766249 -4.30822e-08 5.76275e-08)
(0.000764787 -1.95828e-07 2.65419e-08)
(0.000763084 -1.657e-07 1.0023e-07)
(0.000761461 -6.53178e-08 6.53947e-08)
(0.000760128 -1.24689e-07 6.23023e-08)
(0.000759009 2.2828e-07 9.90692e-08)
(0.000757918 3.58749e-07 6.66734e-08)
(0.000756422 9.10579e-08 5.93281e-08)
(0.000754921 1.50744e-07 5.693e-08)
(0.000753454 1.96528e-07 3.07261e-08)
(0.000751886 3.69065e-07 7.96095e-08)
(0.000750363 1.81473e-07 6.33313e-08)
(0.00074944 1.26453e-07 1.01078e-07)
(-0.00633941 0.0260384 0.000735847)
(-0.000650025 0.0144068 0.000701861)
(-0.00464426 -0.00735031 -5.51188e-06)
(0.0104395 0.00569102 0.000522609)
(-0.00120481 -0.00354282 -0.000197609)
(0.000919655 -0.00162282 7.05696e-05)
(0.00148279 0.000207822 6.75655e-05)
(0.000454955 -1.80544e-05 -8.73418e-07)
(0.000874057 -1.53458e-05 -1.27064e-06)
(0.000784192 -1.21625e-05 -2.8166e-07)
(0.000803649 -6.17921e-06 1.8661e-07)
(0.000800416 -3.66865e-06 -3.07906e-09)
(0.000801105 -2.23249e-06 5.99684e-08)
(0.000800557 -1.27504e-06 5.25155e-08)
(0.000799733 -7.10973e-07 5.10664e-08)
(0.000798556 -3.59629e-07 5.18466e-08)
(0.000797366 -3.58831e-07 5.93736e-08)
(0.00079603 -4.11624e-07 3.17163e-08)
(0.000794727 -3.33914e-07 3.2609e-08)
(0.000793301 -1.72788e-07 2.8147e-08)
(0.00079168 -1.31579e-07 7.85706e-08)
(0.000790142 -1.61516e-07 5.01702e-08)
(0.000788447 -2.92068e-07 2.00559e-10)
(0.000786926 -1.73002e-07 7.17274e-08)
(0.000785682 -1.71033e-07 2.35503e-08)
(0.000784079 2.40437e-08 1.32672e-07)
(0.000782382 1.98794e-07 6.01789e-08)
(0.00078096 3.83936e-07 5.82845e-08)
(0.000779726 7.10233e-07 3.78073e-08)
(0.000778157 5.56955e-07 4.19437e-08)
(0.000776399 3.53571e-07 7.98692e-08)
(0.000774912 4.55526e-07 5.80424e-08)
(0.000773444 -1.26196e-07 4.38668e-08)
(0.000771985 -1.17017e-07 4.73824e-08)
(0.000770562 1.48828e-08 6.59009e-08)
(0.00076915 -8.60575e-09 1.85722e-07)
(0.000767649 -2.92712e-08 3.66068e-08)
(0.000766242 -1.20782e-07 4.03465e-08)
(0.000764545 -2.95975e-07 1.46591e-08)
(0.000763049 -3.66086e-07 9.76288e-09)
(0.000761674 -4.06098e-08 5.38425e-08)
(0.000760548 2.8982e-07 -1.579e-08)
(0.000759245 1.98398e-07 1.78937e-07)
(0.000757578 -2.18166e-08 -8.31663e-08)
(0.000756316 -1.69326e-07 2.99024e-08)
(0.000755048 -9.28802e-08 3.39639e-08)
(0.000753735 2.34446e-08 7.30295e-08)
(0.000751938 2.47626e-07 3.44696e-08)
(0.000750242 1.64483e-07 4.53209e-08)
(0.000749132 2.59481e-07 1.56285e-07)
(0.0492733 -0.00328175 -0.0129837)
(-0.0246218 -0.0199835 0.00372595)
(0.031034 0.0090823 0.00151851)
(-0.00113199 -0.00426661 0.000119703)
(0.00144317 -0.00543452 0.000235277)
(-0.000597474 -2.89359e-05 0.000275923)
(0.000890969 0.000613643 1.31143e-05)
(0.000544023 -6.6396e-06 3.41142e-06)
(0.000900312 -1.51731e-05 -5.9544e-07)
(0.000785684 -1.27935e-05 -6.75265e-07)
(0.00080809 -8.14235e-06 2.51913e-07)
(0.000802809 -5.5187e-06 3.80762e-08)
(0.000802953 -3.2707e-06 1.20996e-07)
(0.000801968 -2.10695e-06 5.53768e-08)
(0.000800614 -1.31488e-06 4.75687e-08)
(0.000799164 -7.84588e-07 5.16761e-08)
(0.000797644 -3.61397e-07 5.07484e-08)
(0.000796178 -2.34042e-07 5.31285e-08)
(0.000794668 -4.44956e-08 6.71197e-08)
(0.00079318 -8.79232e-09 9.28348e-08)
(0.000791622 -8.61547e-08 6.48902e-08)
(0.000790059 2.92565e-09 2.96461e-07)
(0.000788708 -6.60352e-09 9.23358e-08)
(0.000787116 1.16068e-07 9.25172e-08)
(0.000785561 1.32691e-07 6.95377e-08)
(0.000784162 -2.40525e-07 8.21448e-08)
(0.000782681 1.0624e-07 6.69006e-08)
(0.000781186 2.29714e-07 5.92326e-08)
(0.000779384 3.58574e-07 2.32984e-07)
(0.000777764 3.14442e-07 3.97759e-08)
(0.000776654 2.28698e-07 5.43078e-08)
(0.000775042 -3.43964e-08 3.83259e-08)
(0.000773303 1.49295e-07 1.04304e-07)
(0.00077194 8.64534e-08 4.86247e-08)
(0.000770497 1.2289e-07 4.79013e-08)
(0.000769035 -4.11419e-08 4.68883e-08)
(0.000767544 -1.08605e-07 -7.56143e-08)
(0.000765917 -1.76085e-07 6.78234e-08)
(0.000764483 -1.89021e-07 4.63639e-08)
(0.000763406 -4.31069e-08 3.81071e-08)
(0.000762282 3.45046e-08 7.31622e-08)
(0.000760424 1.8343e-07 1.18856e-07)
(0.000758617 -2.56223e-08 3.48674e-08)
(0.000757457 1.17092e-07 7.49705e-08)
(0.000756332 -2.44469e-08 3.57688e-08)
(0.000755162 -2.39804e-07 4.64448e-08)
(0.000753879 -5.28442e-07 1.45461e-08)
(0.000752062 -9.00846e-07 4.47043e-08)
(0.000750372 -3.39678e-07 6.83581e-08)
(0.000748913 9.80483e-09 5.15273e-08)
(-0.0116897 -0.000339112 0.000534519)
(0.0144717 -0.00638377 -0.00197796)
(-0.00336185 -0.00147235 0.000508386)
(-0.00446938 0.00336719 -0.000412794)
(0.0209773 0.00926074 -2.6378e-05)
(0.0169433 -0.000792336 0.000429461)
(0.00102721 0.00019082 1.66164e-05)
(0.00057434 -2.16663e-05 4.79243e-06)
(0.000900449 -2.55291e-05 -7.2389e-07)
(0.000792915 -1.28942e-05 -6.23343e-07)
(0.000812761 -9.20207e-06 2.3691e-07)
(0.000806517 -5.80002e-06 1.61651e-07)
(0.000805378 -3.53128e-06 4.74155e-08)
(0.000803008 -2.2734e-06 4.9706e-08)
(0.00080139 -1.44013e-06 1.54188e-07)
(0.000799751 -9.06125e-07 9.90399e-08)
(0.000798056 -5.49489e-07 5.15967e-08)
(0.000796426 -2.38171e-07 5.75932e-08)
(0.000795008 -2.40252e-07 6.54473e-08)
(0.000793248 -4.14931e-08 1.65807e-07)
(0.000791694 6.81843e-08 -3.03636e-08)
(0.000790242 1.01701e-07 3.77187e-07)
(0.000788588 1.7567e-07 6.22346e-08)
(0.0007871 7.94998e-08 6.79147e-08)
(0.000785237 1.297e-07 1.05716e-08)
(0.000784046 2.24602e-07 -7.1562e-09)
(0.000782969 -8.28345e-10 3.90878e-08)
(0.000781273 -1.15943e-07 6.53215e-09)
(0.000779829 2.6206e-08 3.49193e-08)
(0.000777992 -2.04367e-07 -2.32143e-08)
(0.000775961 -2.41946e-07 2.05031e-08)
(0.000774811 -2.55668e-07 1.62121e-07)
(0.000773594 -2.03583e-07 1.21717e-08)
(0.00077195 -1.59067e-07 -6.48422e-08)
(0.000770402 -2.02265e-07 1.77684e-08)
(0.000768861 -9.71635e-08 4.18833e-08)
(0.000767482 -9.8114e-08 1.44921e-08)
(0.000766144 -5.74396e-08 9.89502e-08)
(0.000764713 8.16275e-08 5.2365e-08)
(0.000763329 -6.03727e-08 5.93391e-08)
(0.000761958 -2.31422e-08 3.19248e-08)
(0.000760472 -2.03055e-07 6.75004e-09)
(0.000759163 1.40964e-08 5.25964e-08)
(0.000757581 1.48784e-07 4.82439e-08)
(0.000755872 8.02898e-08 7.24749e-08)
(0.000754422 -1.16318e-07 4.75196e-08)
(0.000752914 -4.77587e-07 -7.51306e-08)
(0.000752179 -6.83225e-07 2.30438e-08)
(0.000751382 -4.72067e-07 8.81405e-08)
(0.000749545 -3.22848e-07 1.2162e-07)
(-0.00421243 -0.00479869 0.00147398)
(-0.0325443 0.00637879 0.00031294)
(0.00427307 -0.00651699 -0.000631537)
(-0.00561089 0.00787229 0.000628078)
(0.00209867 -0.006127 0.000642239)
(-0.000845972 0.00256787 -8.5112e-05)
(0.00095209 -0.000552094 2.92493e-05)
(0.000491755 -4.9578e-05 1.80792e-06)
(0.000888104 -2.43946e-05 -1.44941e-06)
(0.000806057 -9.91139e-06 -5.22819e-07)
(0.000816985 -7.35479e-06 1.70313e-07)
(0.000809917 -4.28111e-06 -5.68786e-08)
(0.000807373 -2.85396e-06 5.54214e-08)
(0.000804589 -1.70435e-06 5.03305e-08)
(0.000802328 -1.0125e-06 4.55767e-08)
(0.000800281 -5.61588e-07 5.12432e-08)
(0.000798481 -2.48793e-07 4.86593e-08)
(0.000796565 -7.93526e-08 5.2557e-08)
(0.000794913 3.75984e-08 6.42388e-08)
(0.000793564 -1.74802e-07 5.69144e-08)
(0.000791799 2.0698e-08 3.8525e-08)
(0.000790192 -4.06124e-08 4.98361e-08)
(0.000788678 7.37233e-08 1.58322e-08)
(0.000787057 3.51039e-08 4.59039e-08)
(0.000785741 8.84635e-08 1.28888e-07)
(0.000783998 2.72542e-07 1.06217e-07)
(0.000782255 -4.86769e-08 6.14256e-08)
(0.000781221 -2.27359e-07 4.49143e-08)
(0.000779276 -7.1335e-07 -6.62282e-08)
(0.000777431 -7.79649e-07 8.69673e-08)
(0.000776593 -5.81565e-07 -6.97008e-08)
(0.000775094 -1.34344e-07 8.57819e-08)
(0.000773426 -7.16976e-08 3.72198e-08)
(0.000771944 -1.30955e-07 4.78667e-08)
(0.000770576 -1.42488e-07 7.82042e-08)
(0.000769167 -2.62478e-08 6.66826e-08)
(0.000767595 6.5777e-08 4.95915e-08)
(0.000766142 1.11694e-07 4.23454e-08)
(0.000764479 1.17312e-07 4.33692e-08)
(0.000763275 3.36012e-07 6.54722e-08)
(0.000762104 1.02825e-07 6.76402e-08)
(0.000760472 7.86476e-08 8.05403e-09)
(0.000759057 -1.92981e-08 6.20455e-08)
(0.00075754 -2.34784e-07 5.28276e-08)
(0.000756002 -6.37076e-08 1.35836e-08)
(0.000754467 4.22969e-08 4.75117e-08)
(0.000753175 3.52091e-08 -1.0826e-07)
(0.000752074 2.0828e-07 2.74349e-08)
(0.000750832 -1.56321e-07 5.02652e-08)
(0.000749905 -2.9669e-07 5.44237e-08)
(-0.0321476 0.0147609 -0.00108804)
(-0.0280318 -0.0242499 -0.000389537)
(-0.00430613 0.000904444 0.000452131)
(-0.00174325 -0.0069619 0.000319607)
(-0.0011661 -0.000117295 0.000389384)
(-0.00148996 -0.00137786 1.66143e-05)
(0.000979075 -0.000707436 0.000119938)
(0.000495603 -1.40734e-05 6.92166e-07)
(0.000885846 -2.12693e-05 -1.28475e-06)
(0.000814036 -3.18833e-06 -4.70227e-07)
(0.000819822 -3.08558e-06 1.58676e-07)
(0.000812162 -1.27598e-06 2.84291e-08)
(0.000808609 -6.47084e-07 5.21445e-08)
(0.000805315 -4.01112e-07 4.7639e-08)
(0.000802821 -2.61137e-07 6.91313e-08)
(0.000800706 -1.27084e-07 4.84603e-08)
(0.000798658 -2.42749e-07 1.05543e-07)
(0.000796783 -1.92325e-07 5.44709e-08)
(0.000794888 1.5689e-08 -7.89049e-08)
(0.000793226 4.26256e-08 2.65476e-08)
(0.000791862 -1.02185e-07 4.56894e-08)
(0.000790307 -3.15486e-08 5.55005e-08)
(0.000788683 -2.1801e-07 3.78295e-08)
(0.000787118 -1.50164e-07 4.63717e-08)
(0.000785532 -3.15128e-07 6.26358e-08)
(0.000783874 -4.02555e-07 4.79729e-08)
(0.000782344 -1.3844e-07 -1.62593e-07)
(0.000780445 -1.72492e-07 1.34879e-07)
(0.000779144 -3.44165e-07 1.16187e-07)
(0.000778162 1.81861e-07 5.36719e-08)
(0.000776773 3.19088e-07 8.57441e-08)
(0.000775451 3.22443e-08 6.15419e-08)
(0.000773599 -5.43357e-08 4.09264e-08)
(0.000771863 4.04048e-08 2.16016e-08)
(0.000770534 7.45696e-08 4.47717e-08)
(0.000769121 -2.67544e-08 3.44463e-08)
(0.000767654 -4.03749e-08 5.57391e-08)
(0.000766208 -4.0007e-08 6.24256e-08)
(0.000764992 1.1136e-07 4.25214e-08)
(0.00076331 3.16021e-07 1.38624e-08)
(0.000761635 1.25155e-07 1.58615e-08)
(0.00076032 1.60483e-07 5.1356e-08)
(0.000758772 9.87192e-08 4.94284e-08)
(0.000757527 2.79857e-08 4.68628e-08)
(0.000756219 2.40211e-08 4.32008e-08)
(0.000754546 1.28047e-07 4.62756e-08)
(0.000753122 4.86088e-07 4.19096e-08)
(0.000751941 3.39172e-07 5.18432e-08)
(0.000750759 1.89801e-07 8.98577e-08)
(0.00075011 -1.07329e-07 1.17435e-08)
(-0.0059857 -0.00916214 0.000429797)
(-0.0119744 0.0199944 -0.000617072)
(-0.00149584 0.00346807 -0.000721189)
(-0.00507025 -0.0109094 -0.0008596)
(0.00245271 -0.012662 -0.00062055)
(-0.00733364 -0.00113936 -1.10548e-05)
(0.000562478 0.000104162 2.82593e-05)
(0.000906557 4.89037e-05 -1.97272e-06)
(0.000842169 -1.75338e-06 -3.03191e-07)
(0.000828742 7.55156e-06 3.06331e-08)
(0.000819383 3.64362e-06 3.71326e-08)
(0.000812973 2.71789e-06 2.98963e-08)
(0.00080847 1.55927e-06 3.64648e-08)
(0.000805073 9.76832e-07 4.60861e-08)
(0.000802672 5.5248e-07 5.01105e-08)
(0.000800305 2.92765e-07 1.05584e-07)
(0.0007984 1.65038e-07 8.86122e-08)
(0.000796889 9.90791e-08 2.19445e-08)
(0.000795207 -1.19067e-08 3.38774e-08)
(0.000793417 1.53325e-07 7.84944e-08)
(0.000791707 1.26542e-07 5.1102e-08)
(0.000790049 -4.15168e-08 8.09633e-08)
(0.000788532 -1.24123e-07 2.71185e-08)
(0.000786939 -1.84369e-07 5.25744e-08)
(0.000785428 -2.59182e-07 3.48367e-08)
(0.000784221 -4.29637e-07 6.15574e-08)
(0.000782545 -2.03661e-07 2.38279e-08)
(0.000780966 -6.2369e-08 4.70696e-08)
(0.000779719 2.70912e-07 6.50809e-08)
(0.00077826 3.2383e-07 -2.3492e-08)
(0.000776404 3.70593e-07 7.69936e-10)
(0.000774625 2.10502e-07 4.60697e-08)
(0.000773436 -1.91935e-07 -1.7454e-07)
(0.000772105 -1.49966e-07 4.49219e-09)
(0.000770492 -1.70108e-07 2.04913e-07)
(0.000769023 -2.35062e-07 7.15177e-08)
(0.000767579 -1.35972e-07 -7.70934e-09)
(0.000766332 -1.43348e-07 4.40713e-08)
(0.000764923 -2.26283e-07 7.59291e-08)
(0.000763291 -3.05948e-07 3.51429e-08)
(0.000761908 -9.09446e-08 6.13514e-08)
(0.000760438 -1.13083e-07 3.59777e-08)
(0.000758892 9.26649e-08 6.81663e-08)
(0.000757447 1.80637e-07 4.10263e-08)
(0.000756127 2.25934e-07 6.20129e-08)
(0.000755043 1.84677e-07 4.82415e-08)
(0.000753436 3.61343e-07 2.85243e-08)
(0.000751701 4.62388e-07 4.39124e-08)
(0.000750274 6.45093e-07 -5.32096e-08)
(0.000749799 5.48168e-07 9.34861e-08)
(0.00233906 0.0059124 -0.000746539)
(0.0122077 -0.00593442 0.000695963)
(-0.0290382 -0.00393533 -0.000205915)
(-0.00554105 -0.0256681 0.000283976)
(0.00431665 -1.75975e-05 0.000199867)
(0.0122611 -0.00786754 -0.000300278)
(0.000344538 3.56501e-05 7.46393e-06)
(0.000877974 5.66228e-05 -2.74763e-06)
(0.000828225 3.07188e-05 -7.49481e-08)
(0.000820793 1.81615e-05 5.66371e-08)
(0.000813761 1.05855e-05 7.61301e-08)
(0.000809549 6.12358e-06 5.29558e-08)
(0.000806428 3.4819e-06 5.59714e-08)
(0.000804054 2.22136e-06 -1.70644e-08)
(0.000801965 1.39614e-06 5.23157e-08)
(0.000800221 8.45247e-07 7.08028e-08)
(0.000798415 6.40689e-07 4.66825e-08)
(0.000796562 4.13407e-07 7.45671e-08)
(0.000794955 5.42155e-07 7.23e-08)
(0.000793399 1.98296e-08 6.69323e-08)
(0.000791618 -6.47912e-08 2.59494e-08)
(0.000789995 -7.26773e-08 6.12034e-08)
(0.000788506 -7.0834e-08 5.38732e-08)
(0.000786952 -1.75007e-08 4.07331e-08)
(0.000785229 1.72002e-07 6.06851e-08)
(0.000783947 2.14653e-07 2.53266e-08)
(0.000782806 -6.78718e-09 4.45558e-08)
(0.000781039 8.8502e-08 3.72966e-08)
(0.000779626 1.31867e-07 2.40491e-08)
(0.000778284 -7.6303e-08 4.51072e-08)
(0.000776628 -1.22766e-07 1.3011e-07)
(0.000774747 -1.44221e-07 -6.37539e-09)
(0.00077315 -1.59998e-07 -5.58292e-08)
(0.000771892 -3.79034e-07 2.05245e-07)
(0.00077043 -1.0525e-07 3.73836e-08)
(0.000769166 -7.4302e-09 2.19457e-08)
(0.00076777 -5.40661e-08 4.94827e-08)
(0.000766096 -1.01821e-07 5.19118e-08)
(0.000764791 -4.60777e-07 5.13839e-08)
(0.000763481 -2.0549e-07 5.69918e-08)
(0.000761878 -1.09216e-07 4.65724e-08)
(0.00076055 -1.12149e-07 7.52334e-08)
(0.000759139 1.19843e-07 3.66531e-08)
(0.000757692 4.09847e-07 3.20348e-08)
(0.000756222 1.58734e-07 2.35857e-08)
(0.000754713 1.66772e-07 4.7154e-08)
(0.000753464 -1.17433e-07 9.70916e-08)
(0.00075229 1.26418e-07 4.58257e-08)
(0.000750851 2.81756e-07 -6.69494e-08)
(0.000748622 3.75617e-07 5.86858e-08)
(0.00277051 -0.00665033 -0.000979734)
(0.0129944 0.00506294 0.00187909)
(0.0549034 -0.00215258 -0.0270745)
(-0.00233049 -0.00357753 -0.00591209)
(0.00794556 -0.0195619 -0.00101511)
(-0.00378635 0.00860541 -0.00253537)
(0.0012587 0.000172151 -3.57435e-06)
(0.00136842 7.25137e-05 3.41804e-07)
(0.00132799 4.66594e-05 3.25568e-07)
(0.00134144 2.63069e-05 3.48292e-07)
(0.00134159 1.65056e-05 3.81452e-07)
(0.00134059 9.92612e-06 3.35218e-07)
(0.00133948 6.25415e-06 2.64731e-07)
(0.00133737 3.90857e-06 1.88962e-07)
(0.00133468 2.46957e-06 3.30475e-07)
(0.00133199 1.54676e-06 2.74073e-07)
(0.00132945 7.31986e-07 3.34916e-07)
(0.00132752 2.3632e-07 2.17001e-07)
(0.00132416 -2.88875e-07 3.51628e-07)
(0.00132086 -6.37652e-08 5.35355e-07)
(0.00131904 -6.08699e-08 4.37155e-07)
(0.00131641 1.68037e-07 1.06607e-07)
(0.00131397 1.30561e-07 4.17911e-07)
(0.0013117 1.95998e-07 2.85464e-07)
(0.00130922 4.81404e-07 2.75177e-07)
(0.00130639 1.00485e-06 3.585e-07)
(0.00130375 5.54255e-07 2.76748e-07)
(0.00130174 2.60829e-07 3.27507e-07)
(0.00129893 3.78202e-07 3.67496e-07)
(0.00129617 -2.84999e-07 5.66514e-07)
(0.00129355 -8.60208e-07 3.58563e-07)
(0.00129066 -8.60464e-07 1.1335e-07)
(0.00128836 -5.37553e-07 3.6796e-07)
(0.0012868 5.2726e-08 4.03758e-07)
(0.00128471 3.23605e-07 3.27749e-07)
(0.00128163 4.09605e-07 3.2001e-07)
(0.00127886 2.40621e-07 3.0294e-07)
(0.00127611 4.31218e-07 2.02738e-07)
(0.00127437 8.72376e-07 2.87317e-07)
(0.00127264 4.11465e-07 3.56304e-07)
(0.00126986 8.37339e-08 2.80162e-07)
(0.00126763 -1.33222e-09 3.36259e-07)
(0.00126567 -4.10763e-07 2.97236e-07)
(0.00126231 -6.34951e-07 1.84975e-07)
(0.00125957 -3.87564e-07 3.26322e-07)
(0.00125767 -2.73345e-07 3.07048e-07)
(0.00125543 -1.58112e-07 2.84834e-07)
(0.00125346 -3.09879e-07 3.0784e-07)
(0.00125074 -5.7422e-07 3.37007e-07)
(0.00124802 -6.1907e-07 2.16302e-07)
(-0.000529135 -0.00859621 0.000387898)
(0.00328658 0.00165915 -0.000722447)
(-0.00673893 -0.0305088 0.0112288)
(-0.0865925 -8.43458e-05 0.0655589)
(-0.0219776 0.00476847 -0.00417731)
(-0.0128165 0.00244649 -0.000567411)
(0.00119296 0.000187335 1.01862e-06)
(0.00133894 7.87004e-06 3.39632e-07)
(0.0013195 5.15591e-05 3.91764e-07)
(0.00132855 1.59944e-05 5.26785e-07)
(0.00133482 1.25246e-05 3.34861e-07)
(0.00133578 7.30351e-06 3.34202e-07)
(0.00133592 4.62152e-06 3.34856e-07)
(0.00133485 2.67599e-06 3.33097e-07)
(0.00133327 1.57061e-06 3.33475e-07)
(0.00133113 8.21082e-07 2.7034e-07)
(0.00132867 7.69682e-07 3.34312e-07)
(0.00132601 6.17579e-07 4.00011e-07)
(0.00132425 2.56073e-08 5.5625e-07)
(0.00132219 2.41055e-07 3.01489e-07)
(0.00131919 3.82724e-07 2.04498e-07)
(0.00131651 2.76568e-07 2.55356e-07)
(0.0013139 7.38003e-07 5.70969e-07)
(0.00131173 5.35891e-07 2.67408e-07)
(0.00130944 4.20361e-07 3.38561e-07)
(0.00130638 -8.9081e-09 3.18102e-07)
(0.00130347 -3.04971e-08 3.0341e-07)
(0.00130125 -3.1705e-07 3.24811e-07)
(0.00129846 -9.97164e-07 2.88937e-07)
(0.0012954 -8.06284e-07 2.6024e-07)
(0.00129338 -5.43122e-07 6.08635e-08)
(0.00129134 -1.91755e-07 2.69066e-07)
(0.00128947 9.24988e-07 5.09281e-07)
(0.00128729 1.02495e-06 4.32423e-07)
(0.00128424 3.72315e-07 3.24015e-07)
(0.00128165 2.22939e-07 3.09715e-07)
(0.00127942 3.54868e-07 3.26539e-07)
(0.00127732 5.41644e-07 7.53723e-08)
(0.00127432 9.61274e-07 4.65685e-07)
(0.00127127 5.95137e-07 8.85091e-07)
(0.0012691 1.08137e-07 3.34362e-07)
(0.00126671 -2.2337e-07 3.61534e-07)
(0.0012642 -7.12328e-07 3.71901e-07)
(0.0012627 -9.31583e-07 6.02496e-07)
(0.00126069 -1.83924e-07 3.53576e-07)
(0.00125798 -1.89011e-07 3.19092e-07)
(0.0012556 1.51588e-07 2.96844e-07)
(0.00125311 -5.10749e-08 2.53472e-07)
(0.00125073 -2.93952e-07 2.03466e-07)
(0.00124899 -3.54022e-07 3.99486e-07)
(-0.00138152 0.00564823 0.00446347)
(0.0147105 -0.0247687 -0.00191512)
(0.0185021 -0.000959103 -0.00269023)
(0.0889252 0.0779001 -0.0345501)
(-0.0149678 -0.00430779 -0.0138279)
(-0.00447131 -0.00606268 0.000178335)
(0.000670148 0.000781578 -1.26434e-05)
(0.00127541 -2.2544e-05 6.36426e-07)
(0.00140216 1.87479e-05 -2.12806e-07)
(0.00129297 -2.73125e-06 3.24236e-07)
(0.00133072 2.15905e-06 3.3329e-07)
(0.0013307 1.18005e-06 3.32207e-07)
(0.00133369 8.93232e-07 3.90054e-07)
(0.00133356 5.68448e-07 3.34465e-07)
(0.00133236 3.15579e-07 3.3363e-07)
(0.00133099 8.69064e-08 3.3242e-07)
(0.0013292 -7.69402e-08 2.4673e-07)
(0.00132659 4.57807e-08 2.70239e-07)
(0.00132369 1.87426e-07 3.7776e-07)
(0.00132131 -1.68123e-08 3.23111e-07)
(0.00131909 -7.28064e-08 3.4693e-07)
(0.00131685 2.8716e-09 3.27083e-07)
(0.00131428 4.51884e-08 3.14478e-07)
(0.0013113 -4.08738e-08 -8.90836e-08)
(0.00130853 -3.51673e-07 2.83361e-07)
(0.00130583 -2.60794e-07 3.77395e-07)
(0.00130336 -2.37362e-07 3.43291e-07)
(0.00130053 -1.22807e-07 3.1667e-07)
(0.00129832 -2.23151e-07 2.14792e-07)
(0.00129675 5.1875e-07 3.00567e-07)
(0.00129432 8.28095e-07 5.22711e-07)
(0.00129249 8.29975e-07 4.54247e-07)
(0.00128988 7.14768e-07 1.74434e-07)
(0.00128611 2.85538e-07 1.89879e-07)
(0.0012837 1.64384e-08 3.63824e-07)
(0.00128161 1.21077e-07 3.32552e-07)
(0.00127925 6.81658e-08 2.87116e-07)
(0.00127687 -4.18551e-08 3.51642e-07)
(0.00127443 -2.90027e-07 3.0397e-07)
(0.00127156 -2.72502e-07 3.95667e-07)
(0.00126884 -1.18154e-07 3.54181e-07)
(0.00126661 -1.63378e-07 3.57116e-07)
(0.00126479 4.72004e-07 4.05922e-07)
(0.00126298 6.60431e-07 2.6655e-07)
(0.00126051 3.02092e-07 1.80455e-07)
(0.0012581 3.47934e-07 3.37802e-07)
(0.00125561 4.18424e-07 3.00114e-07)
(0.0012529 6.16016e-07 3.31703e-07)
(0.00125037 3.03887e-07 3.29704e-07)
(0.00124883 2.03387e-07 3.79787e-07)
(-0.00992393 0.00370031 0.00186549)
(0.0189057 0.0233716 0.033435)
(0.00591208 -0.0113175 -0.00464505)
(0.00538909 0.00620821 -0.0069118)
(0.00497925 -0.00240387 0.00097827)
(0.00445563 0.0101526 0.000440258)
(0.00165905 5.14957e-05 5.37592e-05)
(0.00134672 -3.65349e-05 1.30642e-06)
(0.00145719 -2.01739e-05 3.12501e-07)
(0.00130782 -1.69071e-05 5.51867e-07)
(0.00133971 -8.26861e-06 3.35759e-07)
(0.00133419 -4.86594e-06 1.56282e-07)
(0.00133516 -2.97522e-06 3.33003e-07)
(0.00133413 -1.66811e-06 3.34252e-07)
(0.00133267 -8.80172e-07 3.33071e-07)
(0.00133065 -3.99599e-07 3.32804e-07)
(0.00132862 -4.75683e-07 3.41302e-07)
(0.00132634 -5.65294e-07 2.73965e-07)
(0.00132418 -5.00944e-07 2.8393e-07)
(0.00132187 -3.18074e-07 2.97093e-07)
(0.00131921 -2.56552e-07 3.51811e-07)
(0.00131666 -2.96362e-07 3.32548e-07)
(0.00131385 -5.50652e-07 1.80834e-07)
(0.00131124 -3.43255e-07 3.99e-07)
(0.00130917 -3.30853e-07 2.6628e-07)
(0.00130653 -1.56703e-08 3.94217e-07)
(0.00130364 3.25379e-07 3.91448e-07)
(0.00130127 6.82385e-07 3.82016e-07)
(0.00129926 1.32085e-06 2.9289e-07)
(0.00129671 1.00944e-06 3.02523e-07)
(0.00129376 7.33057e-07 3.71054e-07)
(0.00129119 9.10396e-07 2.64432e-07)
(0.00128878 -7.0974e-08 3.18466e-07)
(0.00128641 -1.51662e-07 3.19599e-07)
(0.00128403 5.56102e-08 3.32293e-07)
(0.00128171 -2.62094e-09 4.77193e-07)
(0.00127922 -5.85532e-08 2.95855e-07)
(0.00127687 -2.08421e-07 2.77844e-07)
(0.00127404 -5.53419e-07 1.94035e-07)
(0.00127149 -6.41258e-07 2.29293e-07)
(0.00126924 -7.14231e-08 3.14585e-07)
(0.00126745 4.97986e-07 2.31786e-07)
(0.00126523 4.26852e-07 6.07344e-07)
(0.00126248 7.15765e-08 -3.10217e-09)
(0.0012603 -2.05157e-07 2.41434e-07)
(0.00125812 -1.17283e-07 3.23554e-07)
(0.00125593 -5.67553e-09 3.63556e-07)
(0.00125296 3.46998e-07 3.1215e-07)
(0.0012502 2.68667e-07 3.6216e-07)
(0.00124835 4.27938e-07 5.22107e-07)
(0.0185646 0.0067319 -0.0381422)
(0.0421012 0.052336 0.0422224)
(-0.00299046 -0.0238512 0.00390078)
(0.0110772 0.00296 0.00275442)
(0.00579048 0.00200504 -0.000141166)
(-0.000572762 -0.000795184 0.00277894)
(3.04035e-05 0.0013583 1.35351e-05)
(0.00149396 -1.16948e-05 7.05431e-06)
(0.00149743 -2.0729e-05 4.34207e-07)
(0.00130831 -1.8279e-05 4.07495e-07)
(0.0013458 -1.15744e-05 3.56021e-07)
(0.00133732 -7.92216e-06 5.62113e-07)
(0.00133769 -4.6369e-06 4.05855e-07)
(0.00133618 -3.01676e-06 3.34582e-07)
(0.00133395 -1.91635e-06 2.92055e-07)
(0.0013315 -1.15192e-06 3.52061e-07)
(0.00132899 -5.0576e-07 3.28069e-07)
(0.00132656 -3.39042e-07 3.29801e-07)
(0.001324 -6.42612e-09 3.25348e-07)
(0.00132162 8.9026e-08 3.37677e-07)
(0.00131912 -1.31564e-07 3.65755e-07)
(0.00131649 6.04405e-08 1.00975e-06)
(0.00131423 -3.91965e-09 3.85381e-07)
(0.00131158 1.58218e-07 3.20641e-07)
(0.00130895 2.27476e-07 2.5125e-07)
(0.00130665 -4.27628e-07 3.92893e-07)
(0.00130423 1.59924e-07 3.80382e-07)
(0.00130177 3.82732e-07 3.30313e-07)
(0.00129872 6.30925e-07 5.01489e-07)
(0.001296 5.53757e-07 3.08264e-07)
(0.00129419 3.81774e-07 3.51104e-07)
(0.00129148 -6.00328e-08 3.21258e-07)
(0.00128854 3.02315e-07 8.21344e-07)
(0.00128626 1.6179e-07 3.22456e-07)
(0.00128389 2.16773e-07 3.32939e-07)
(0.00128146 -7.53025e-08 3.17997e-07)
(0.001279 -2.18721e-07 -7.18468e-08)
(0.00127625 -3.26739e-07 3.26784e-07)
(0.0012739 -3.59186e-07 3.15722e-07)
(0.00127217 -1.22633e-07 1.25324e-07)
(0.00127026 5.16001e-08 3.48946e-07)
(0.00126723 2.58425e-07 4.74001e-07)
(0.00126425 -1.04378e-07 3.12991e-07)
(0.00126219 9.5653e-08 3.14815e-07)
(0.00126027 -1.89026e-07 3.43176e-07)
(0.00125835 -4.56477e-07 3.12503e-07)
(0.00125619 -9.34724e-07 1.11625e-07)
(0.00125324 -1.45147e-06 2.74301e-07)
(0.00125046 -5.50819e-07 3.53097e-07)
(0.00124796 3.61061e-08 3.25506e-07)
(-0.0339806 0.047233 0.00176327)
(-0.0038912 -0.00975868 -0.00356353)
(-0.00172811 0.0126081 -0.00166224)
(-0.00564648 -0.00144639 0.00311147)
(0.0178893 0.00673393 0.0041021)
(0.0172464 0.00266784 -9.62068e-05)
(0.00105171 0.00111855 -0.000149949)
(0.00149457 -6.45367e-05 7.15677e-06)
(0.00149608 -3.98727e-05 4.40463e-07)
(0.00131907 -1.95657e-05 3.91159e-07)
(0.00135266 -1.39799e-05 2.98035e-07)
(0.00134287 -8.77625e-06 4.98077e-07)
(0.00134129 -5.28425e-06 7.79863e-08)
(0.00133753 -3.4123e-06 3.34566e-07)
(0.001335 -2.19118e-06 6.33437e-07)
(0.00133241 -1.38862e-06 4.26355e-07)
(0.00132964 -8.27189e-07 3.33641e-07)
(0.00132696 -3.45246e-07 3.60805e-07)
(0.00132471 -3.28419e-07 3.43644e-07)
(0.00132171 7.11115e-08 5.5919e-07)
(0.00131917 2.32887e-07 2.38144e-07)
(0.00131682 2.39882e-07 9.89079e-07)