/*--------------------------------*- C++ -*----------------------------------*\
| =========                 |                                                 |
| \\      /  F ield         | OpenFOAM: The Open Source CFD Toolbox           |
|  \\    /   O peration     | Version:  5.0                                   |
|   \\  /    A nd           | Web:      www.OpenFOAM.org                      |
|    \\/     M anipulation  |                                                 |
\*---------------------------------------------------------------------------*/
FoamFile
{
    version     2.0;
    format      ascii;
    class       volVectorField;
    location    "2.6";
    object      U_0;
}
// * * * * * * * * * * * * * * * * * * * * * * * * * * * * * * * * * * * * * //

dimensions      [0 1 -1 0 0 0 0];

internalField   nonuniform List<vector> 
9340
(
(0.00697376 0.00240013 0.000371241)
(0.00669215 0.00794004 0.000388031)
(0.00547177 0.00171551 0.000165585)
(0.0079423 -0.00219178 0.000380359)
(-0.00100497 0.00933628 -0.00142571)
(-0.00286623 -0.00420679 -1.78882e-05)
(0.000622007 -1.51956e-05 5.32789e-06)
(0.000877507 7.4868e-06 -1.9828e-06)
(0.000826832 1.13276e-05 -1.20971e-07)
(0.000819874 7.66106e-06 9.36481e-08)
(0.000811873 5.755e-06 1.09118e-07)
(0.000806784 3.7543e-06 4.17602e-08)
(0.000803717 2.56177e-06 -6.67641e-09)
(0.000800743 1.89205e-06 6.93168e-08)
(0.000798 1.17274e-06 4.70025e-08)
(0.000795985 7.06803e-07 -4.02774e-10)
(0.000794152 3.2409e-07 4.89382e-08)
(0.000792455 2.13554e-07 6.75611e-08)
(0.000790535 1.51686e-07 5.93306e-08)
(0.000789137 -2.48376e-07 1.15713e-07)
(0.000787953 -2.23046e-07 5.92644e-08)
(0.000786265 -8.41932e-08 7.3372e-08)
(0.000784665 -1.65239e-07 2.97395e-08)
(0.000783113 -3.21654e-08 4.62513e-08)
(0.000781871 2.86083e-07 6.56284e-08)
(0.000780535 1.69884e-07 6.20791e-08)
(0.000779 1.72429e-07 5.75269e-08)
(0.000777913 5.59198e-08 4.55705e-08)
(0.000775823 1.23017e-07 2.55816e-08)
(0.00077383 -2.58735e-07 6.32686e-08)
(0.000772754 -7.02111e-07 -6.53705e-08)
(0.000771046 -5.59336e-07 2.88901e-09)
(0.00076989 -3.51833e-07 8.26776e-08)
(0.000768983 -2.40527e-07 6.4746e-08)
(0.000767438 -5.92007e-09 1.04306e-07)
(0.000765858 9.50733e-08 6.60307e-08)
(0.000764183 -8.95346e-08 2.74236e-08)
(0.000762637 1.22567e-07 3.72643e-08)
(0.00076127 3.84812e-07 -1.60719e-08)
(0.000760227 4.57535e-07 6.82078e-08)
(0.000759018 1.67106e-07 2.81441e-08)
(0.000757438 1.34717e-07 6.69908e-08)
(0.000756045 -6.5902e-08 9.0209e-08)
(0.000754427 -2.80214e-07 2.38443e-07)
(0.000752928 -1.89212e-07 4.11319e-08)
(0.000751722 -1.27671e-07 3.76112e-08)
(0.000750462 -3.16943e-07 4.90755e-08)
(0.000749107 -5.71357e-07 3.71787e-08)
(0.000747535 -5.09233e-07 -1.48854e-08)
(0.000745864 -2.55294e-07 6.75045e-08)
(-0.00312879 0.00157886 0.000151376)
(0.0110028 -0.00850171 -0.000781296)
(-0.0157469 -0.0143054 -0.000570495)
(0.0185723 0.0166576 -0.0158875)
(0.00323341 -0.00737164 -0.000369388)
(-0.00181512 0.00269152 0.000256911)
(0.000435741 4.15089e-05 1.49769e-05)
(0.000865036 2.99694e-05 -2.32421e-06)
(0.000827646 4.58102e-05 -1.51296e-07)
(0.000814426 1.72499e-05 2.11189e-08)
(0.000808641 1.18057e-05 3.77506e-08)
(0.000804165 6.84126e-06 3.80226e-08)
(0.000801481 4.22163e-06 4.24735e-08)
(0.000799198 2.30569e-06 4.42254e-08)
(0.000797292 1.41589e-06 4.65487e-08)
(0.000795524 7.37281e-07 6.09728e-08)
(0.000793903 6.20166e-07 4.8367e-08)
(0.000792579 4.28166e-07 5.82735e-08)
(0.000790724 2.02578e-07 1.69116e-07)
(0.000788868 2.77645e-07 2.16214e-08)
(0.00078758 2.26772e-07 7.78938e-08)
(0.00078603 1.72723e-07 5.68089e-08)
(0.000784665 5.18218e-07 6.44476e-08)
(0.000783709 4.8474e-07 2.08138e-07)
(0.000781995 4.78282e-07 4.71087e-08)
(0.000780184 1.35346e-07 4.30027e-08)
(0.000778764 -3.21503e-08 3.08556e-08)
(0.000777228 -2.4506e-07 4.40821e-08)
(0.000775645 -8.95088e-07 7.35975e-08)
(0.000773829 -4.91337e-07 4.2666e-08)
(0.000772614 -4.27783e-07 1.33457e-07)
(0.000771682 -2.44323e-07 5.79933e-08)
(0.000770202 4.20654e-07 1.84853e-07)
(0.000768889 4.12901e-07 2.07731e-07)
(0.000767478 1.44304e-07 4.78658e-08)
(0.000765806 7.21794e-08 3.58039e-08)
(0.000764482 7.19964e-08 3.60258e-08)
(0.000763137 1.6892e-07 5.16177e-08)
(0.000761611 3.39168e-07 1.40886e-08)
(0.000759948 4.23372e-07 3.39736e-08)
(0.000758518 1.80617e-07 5.5931e-08)
(0.000757035 -1.29245e-07 5.05942e-08)
(0.000755543 -4.53141e-07 4.22172e-08)
(0.000754485 -3.52408e-07 8.48776e-08)
(0.000753223 -6.14987e-08 5.35079e-08)
(0.000751553 5.26518e-08 7.31587e-08)
(0.000750285 2.24594e-07 5.3406e-08)
(0.000749125 -2.54514e-08 5.07738e-08)
(0.000747516 -1.88798e-07 5.02012e-08)
(0.000746567 -2.16533e-07 2.53692e-08)
(-0.0125906 -0.00889841 0.000931244)
(-0.00940059 0.0178829 -0.0030938)
(-0.0137385 -0.0102843 -0.000655918)
(-0.020485 0.0788553 -0.00176042)
(0.01847 0.00421807 -0.00460747)
(-0.000829751 -0.00141597 -1.55261e-06)
(0.000839521 -1.23751e-05 -8.15013e-06)
(0.00043399 2.64875e-05 -1.56883e-07)
(0.0008478 4.3356e-05 -1.39965e-06)
(0.000777526 1.62364e-05 -5.15187e-07)
(0.000798869 1.14735e-05 2.19365e-07)
(0.000797305 6.63796e-06 4.1826e-08)
(0.00079805 4.01751e-06 6.22832e-08)
(0.000797238 2.39041e-06 5.19345e-08)
(0.000796042 1.43999e-06 5.35375e-08)
(0.000794991 7.94082e-07 5.89818e-08)
(0.000793767 3.43917e-07 2.10253e-08)
(0.000791933 5.93306e-08 4.03996e-08)
(0.000790347 -3.98729e-07 2.28825e-08)
(0.000789166 -1.7458e-07 4.46624e-08)
(0.00078782 -6.50441e-08 4.51714e-08)
(0.000786626 4.18354e-08 4.38482e-08)
(0.000785051 2.21483e-07 -5.78876e-09)
(0.000783058 1.24394e-07 5.6187e-08)
(0.00078143 -2.00548e-07 5.21375e-08)
(0.000779895 4.50702e-08 2.81521e-08)
(0.000778525 -1.18375e-07 5.27681e-08)
(0.000776838 -8.45123e-08 5.91152e-08)
(0.00077552 -8.66154e-08 -4.91475e-08)
(0.000774419 3.96163e-07 1.50223e-08)
(0.000773066 7.28153e-07 7.55576e-08)
(0.000772107 7.11111e-07 6.80571e-08)
(0.00077071 3.62305e-07 2.82868e-07)
(0.000768634 3.8021e-07 1.17987e-07)
(0.000767009 1.10008e-07 8.63216e-08)
(0.000765766 1.4353e-07 5.08534e-08)
(0.000764302 1.39212e-07 2.203e-07)
(0.000762968 7.34409e-08 6.85332e-08)
(0.000761584 9.07026e-08 4.59195e-08)
(0.000760025 -2.60599e-08 2.1848e-08)
(0.000758325 -8.28007e-08 6.71137e-08)
(0.000756648 -3.00546e-09 7.43951e-08)
(0.00075577 4.73121e-07 1.86943e-07)
(0.00075492 4.29537e-07 7.22595e-08)
(0.000753437 3.29096e-07 7.71929e-08)
(0.00075208 2.80211e-07 1.08322e-07)
(0.000750365 6.02183e-07 3.17225e-08)
(0.000748591 2.80432e-07 5.76981e-08)
(0.000747302 2.11563e-07 5.93431e-08)
(0.000746368 9.76947e-08 8.65568e-08)
(-0.00535186 0.00706071 0.000202172)
(-0.00114315 -0.0100222 -0.00168451)
(-0.00490711 -0.0092778 -0.000138883)
(0.0105837 0.00449775 0.00029986)
(-0.00159327 -0.0038334 -0.000236518)
(0.000602365 -0.00155744 7.37943e-05)
(0.00141995 0.000372089 6.73409e-05)
(0.00041722 7.45329e-06 -1.53279e-06)
(0.000853168 1.34242e-05 -1.07741e-06)
(0.000774433 6.32288e-06 -5.22106e-07)
(0.000796624 5.20752e-06 1.86604e-07)
(0.000794831 3.36885e-06 8.43915e-09)
(0.000796165 2.03795e-06 5.54328e-08)
(0.000795973 1.35297e-06 4.84927e-08)
(0.000795295 1.03792e-06 4.61403e-08)
(0.000794154 7.72599e-07 4.75972e-08)
(0.000792986 2.71574e-07 9.24849e-08)
(0.000791653 1.32521e-08 3.65246e-08)
(0.000790434 -3.79035e-08 3.84982e-08)
(0.000789287 -3.57546e-07 3.07051e-08)
(0.000787852 -2.15503e-07 6.49571e-08)
(0.000786388 -3.06146e-07 4.7811e-08)
(0.000784768 -4.92777e-07 2.5049e-08)
(0.000783182 -3.49062e-07 7.51044e-08)
(0.000781896 -2.21562e-07 2.98579e-08)
(0.000780287 -1.45941e-07 8.86106e-08)
(0.000778602 1.44582e-07 6.0064e-08)
(0.000777268 2.58287e-07 7.95234e-08)
(0.000776244 7.86886e-07 2.02673e-08)
(0.000774844 5.57323e-07 2.85749e-08)
(0.000773002 7.08459e-07 1.79605e-08)
(0.000771219 6.92386e-07 -1.94749e-08)
(0.000769784 2.10592e-07 4.39213e-08)
(0.000768571 -4.17393e-08 4.50252e-08)
(0.00076718 1.29466e-07 4.61163e-08)
(0.000765842 6.18073e-08 3.99902e-08)
(0.000764394 5.57219e-08 6.11651e-08)
(0.000763076 -2.6197e-08 9.71024e-08)
(0.000761487 -3.84938e-07 -9.06265e-09)
(0.000759732 -2.61141e-07 -9.55195e-08)
(0.000758547 -8.25978e-08 5.13192e-08)
(0.000757729 2.12291e-07 7.1263e-08)
(0.000756081 5.56955e-07 1.31537e-07)
(0.000754301 3.46244e-07 5.15114e-08)
(0.000753033 6.78498e-08 3.33294e-08)
(0.000751891 -1.31603e-08 1.42082e-07)
(0.000750281 -1.76681e-07 8.3878e-08)
(0.000748634 1.30141e-08 3.22576e-08)
(0.000747284 1.89741e-07 4.23689e-08)
(0.00074618 2.14132e-07 4.70423e-08)
(0.0333079 0.0133529 -0.00942946)
(-0.0321984 -0.000639647 0.00578065)
(0.0355875 0.00931498 0.00241233)
(-0.000988588 -0.00515254 7.93719e-05)
(0.00129893 -0.00587576 0.00023809)
(-0.00183161 -0.000298694 0.000242389)
(0.000851027 0.000620246 1.36613e-05)
(0.00048623 4.56753e-06 2.57272e-06)
(0.000865476 9.67522e-07 -2.88344e-07)
(0.000767345 -1.53847e-06 -8.72408e-07)
(0.000795155 -6.49731e-07 2.54616e-07)
(0.000793326 -6.99224e-07 -1.43568e-08)
(0.00079552 -2.05051e-07 1.88159e-07)
(0.000795981 -2.38033e-07 5.05627e-08)
(0.000795311 -3.50802e-07 3.49367e-08)
(0.00079403 -2.60575e-07 3.00886e-08)
(0.000792816 1.65215e-08 4.86099e-08)
(0.000791547 3.0569e-08 4.94267e-08)
(0.000789884 2.72788e-07 1.88472e-07)
(0.000788946 5.50796e-07 7.55303e-08)
(0.000787887 -6.2228e-08 6.66001e-08)
(0.000786283 2.35456e-07 -3.98551e-09)
(0.000785001 6.51553e-08 3.04556e-07)
(0.000783401 9.50535e-08 6.24661e-08)
(0.000781686 1.41559e-07 6.47469e-08)
(0.000780353 -8.40922e-08 2.42688e-08)
(0.000779029 1.06152e-07 6.62146e-08)
(0.000777636 1.76858e-07 2.44369e-08)
(0.000775888 2.30125e-07 -7.38582e-09)
(0.000774314 9.05662e-08 6.77846e-08)
(0.000773228 -2.93415e-09 4.8399e-08)
(0.000771479 -2.70045e-07 4.0675e-08)
(0.000769789 8.31422e-08 7.21577e-08)
(0.000768531 2.54294e-08 4.70104e-08)
(0.000767138 5.32155e-08 7.39856e-08)
(0.000765673 -5.00376e-08 4.39568e-08)
(0.000764192 -1.75169e-07 1.62509e-08)
(0.000762419 -2.09437e-07 6.17529e-08)
(0.000761293 -2.42317e-07 1.14554e-07)
(0.000760406 -1.37294e-07 6.90225e-08)
(0.000758918 2.22105e-08 4.1304e-08)
(0.000757445 -6.32562e-08 3.3972e-07)
(0.000755934 -3.42941e-07 -1.21484e-08)
(0.000754306 -2.17385e-07 -1.34998e-07)
(0.000752987 -2.61156e-07 7.54836e-08)
(0.000751775 -3.12429e-07 4.53528e-08)
(0.000750398 -5.81493e-07 -4.35532e-08)
(0.000749049 -4.23288e-07 -9.71023e-09)
(0.000747547 -2.70187e-07 3.61562e-09)
(0.000745866 8.87096e-08 9.03077e-08)
(-0.00654144 0.000949124 0.00129811)
(0.0150616 -0.00944541 -0.00242154)
(-0.00287554 -0.00177015 0.000574062)
(-0.000392163 0.00471673 -0.000137962)
(0.0230895 0.011897 -0.000290497)
(0.016113 -0.000733409 0.000420353)
(0.000972119 0.000215093 1.65608e-05)
(0.000517156 -2.16069e-05 4.02597e-06)
(0.000864039 -2.44269e-05 -4.31475e-07)
(0.000772221 -1.10447e-05 -7.92602e-07)
(0.00079764 -7.47076e-06 2.43133e-07)
(0.000795367 -4.50232e-06 1.23864e-08)
(0.00079673 -2.59516e-06 8.94371e-08)
(0.000795784 -1.6992e-06 4.47586e-08)
(0.000795264 -1.24077e-06 6.75886e-08)
(0.000794611 -8.35971e-07 7.12488e-08)
(0.000793349 -4.42965e-07 4.92423e-08)
(0.000791972 -1.44589e-07 7.07859e-08)
(0.000791083 2.6288e-08 3.23431e-08)
(0.000788866 6.76664e-07 6.35751e-08)
(0.000787456 7.47634e-07 1.25125e-07)
(0.000786547 5.23724e-07 1.14218e-07)
(0.000784592 3.61776e-07 4.48774e-08)
(0.000783277 1.78464e-07 7.61005e-08)
(0.000781672 1.06208e-07 7.08545e-08)
(0.000780242 2.2367e-07 3.17644e-08)
(0.000778928 4.86285e-09 3.67332e-08)
(0.000777421 -1.32522e-07 1.58671e-08)
(0.000776133 -1.44397e-07 7.26488e-08)
(0.000774551 -1.62731e-07 -6.31197e-08)
(0.00077255 -4.54526e-07 -1.28484e-08)
(0.000771325 -3.81073e-07 -2.13364e-08)
(0.000770153 -2.85124e-07 8.97646e-09)
(0.000768532 -1.45951e-07 5.07596e-08)
(0.000767085 -1.99392e-07 4.76003e-08)
(0.000765557 -8.30423e-08 4.10053e-08)
(0.000764196 -9.747e-08 7.33214e-08)
(0.000762995 1.95082e-08 6.72978e-08)
(0.000761579 2.83352e-07 5.4882e-08)
(0.000760064 8.28598e-08 -6.32586e-08)
(0.000758641 1.00514e-08 4.01798e-08)
(0.000757273 -6.03155e-08 5.16845e-09)
(0.00075589 -1.59143e-07 5.18487e-08)
(0.000754406 -1.69271e-07 2.88701e-08)
(0.000752916 -1.13536e-07 2.36866e-07)
(0.000751495 -2.38152e-07 4.63288e-08)
(0.000750148 -5.22167e-07 -3.4025e-07)
(0.000749027 -5.81069e-07 5.0747e-08)
(0.000747925 -5.12374e-07 9.5806e-08)
(0.000746406 -2.22254e-07 1.72323e-07)
(-0.00491843 -0.00550977 0.00126877)
(-0.0267912 0.0092817 0.000136066)
(0.00317954 -0.00603852 -0.00023643)
(-0.00602052 0.00780211 0.000818081)
(0.00191176 -0.00717685 0.000776383)
(-0.000912471 0.00247644 -7.82518e-05)
(0.000894644 -0.000578289 3.30071e-05)
(0.000450237 -6.06253e-05 1.1361e-06)
(0.000859641 -3.44993e-05 -1.29107e-06)
(0.000788453 -1.59017e-05 -6.12247e-07)
(0.000803319 -1.08632e-05 1.73333e-07)
(0.000799412 -6.34041e-06 1.51623e-08)
(0.000799018 -4.0941e-06 5.15628e-08)
(0.00079767 -2.42499e-06 4.6987e-08)
(0.000796388 -1.30412e-06 3.75909e-08)
(0.000795027 -6.73436e-07 5.04331e-08)
(0.000793679 -3.55843e-07 4.80666e-08)
(0.000792132 -1.174e-07 3.62676e-08)
(0.000790908 -1.55365e-07 4.7388e-08)
(0.000789844 -3.37541e-07 5.60698e-08)
(0.000787691 3.89827e-07 -2.35842e-08)
(0.000785797 2.61785e-08 4.28711e-08)
(0.000784567 1.51846e-07 -5.3581e-08)
(0.000783079 7.34038e-08 4.40057e-08)
(0.000781741 7.2377e-08 8.34449e-09)
(0.000780225 2.09473e-07 1.79678e-07)
(0.000778583 -2.38661e-08 4.78817e-08)
(0.00077745 -7.20478e-08 6.39671e-08)
(0.000775852 -4.19549e-07 2.17398e-08)
(0.000773929 -7.29893e-07 2.39802e-09)
(0.000772958 -2.9803e-07 1.46565e-07)
(0.000771695 -4.18733e-08 1.60522e-07)
(0.000770086 -7.74309e-08 3.82958e-08)
(0.000768641 -7.09815e-08 -4.35425e-08)
(0.000767218 -4.3894e-08 1.31245e-07)
(0.000765802 5.51292e-08 1.32589e-07)
(0.000764321 1.30335e-07 5.08705e-08)
(0.000762895 1.88167e-07 4.05732e-08)
(0.000761372 1.10323e-07 4.30316e-08)
(0.000760063 1.655e-07 -6.98742e-08)
(0.000758739 5.53633e-08 5.31286e-08)
(0.000757234 -9.35833e-09 2.43004e-09)
(0.000755799 -5.58101e-08 5.25957e-08)
(0.000754364 -9.50591e-08 4.974e-08)
(0.000752902 -4.16138e-08 8.00946e-09)
(0.000751267 3.67532e-09 4.64872e-08)
(0.000749973 -2.02341e-08 -9.02788e-08)
(0.000749066 -2.93459e-07 6.26456e-08)
(0.000748005 -2.17216e-07 2.46174e-08)
(0.000746782 -2.71223e-07 7.83102e-08)
(-0.027707 0.0144446 -0.00113944)
(-0.0267897 -0.0265746 -0.000588154)
(-0.00198706 0.00037071 0.000474478)
(-0.00131862 -0.00665767 0.000395444)
(-0.00073265 -0.000438557 0.000437687)
(-0.00125735 -0.00157439 1.35593e-05)
(0.000973423 -0.000732737 0.000121638)
(0.000480369 -2.88503e-05 3.87198e-07)
(0.000868312 -3.56446e-05 -1.32005e-06)
(0.00080158 -1.36498e-05 -4.90172e-07)
(0.000809592 -1.01202e-05 1.52851e-07)
(0.00080383 -5.86166e-06 2.32763e-08)
(0.000801624 -3.61521e-06 4.95805e-08)
(0.000799271 -2.27941e-06 4.44454e-08)
(0.000797452 -1.37534e-06 4.83967e-08)
(0.000795794 -7.86215e-07 4.62692e-08)
(0.000794041 -5.7385e-07 1.03862e-07)
(0.00079222 -2.81716e-07 5.11535e-08)
(0.000790806 1.56078e-07 1.21758e-07)
(0.000789546 -6.83203e-08 3.76839e-08)
(0.00078791 -4.11686e-07 3.89825e-08)
(0.000786248 -1.68088e-07 5.34318e-08)
(0.00078465 -2.86132e-07 3.18037e-08)
(0.000783177 -1.55426e-07 4.60268e-08)
(0.000781841 -2.4782e-07 5.39969e-08)
(0.000780122 -3.02275e-07 3.75584e-08)
(0.000778576 -4.94096e-08 -1.06356e-08)
(0.000776929 2.7499e-08 4.02648e-08)
(0.000775316 -2.05153e-07 2.45784e-08)
(0.000774708 2.50796e-07 8.80745e-08)
(0.000773414 4.05259e-07 8.41424e-08)
(0.000771603 1.85821e-07 2.24724e-07)
(0.000770118 2.97249e-07 5.01005e-08)
(0.000768575 1.08065e-07 4.21366e-08)
(0.000767244 4.72867e-08 4.2053e-08)
(0.000765775 -1.31566e-07 3.87529e-08)
(0.000764362 -2.31124e-07 5.42262e-08)
(0.000762969 -1.51131e-07 3.98305e-08)
(0.000761549 1.22105e-07 3.95963e-08)
(0.000759994 2.39945e-07 1.01507e-07)
(0.000758421 3.40644e-08 1.66967e-08)
(0.000757134 3.0079e-08 3.76491e-08)
(0.000755784 3.9967e-08 1.5739e-08)
(0.000754425 -1.00843e-07 4.9291e-08)
(0.000753041 1.28772e-08 5.01902e-08)
(0.000751522 1.27908e-07 4.40835e-08)
(0.000749777 5.09427e-07 5.88758e-08)
(0.000748783 6.08958e-07 6.96559e-08)
(0.000747961 1.6043e-07 4.94289e-08)
(0.000747015 -6.52832e-09 8.87311e-08)
(-0.00744953 -0.011009 0.000587981)
(-0.0137161 0.0147442 -1.99814e-05)
(-0.00169448 0.00251449 -0.000934928)
(0.000678229 -0.00775262 -0.00270198)
(0.00447497 -0.0273122 -0.000734008)
(-0.00764168 -0.000675231 -4.60149e-05)
(0.000545513 0.000118249 2.78336e-05)
(0.000882661 2.45357e-05 -1.84199e-06)
(0.000828443 -2.1456e-05 -2.18387e-07)
(0.000820346 -6.45936e-06 6.17275e-08)
(0.000813061 -5.71551e-06 4.21617e-08)
(0.000807552 -3.35263e-06 3.28713e-08)
(0.000803499 -2.28013e-06 4.03733e-08)
(0.000800472 -1.61943e-06 4.90023e-08)
(0.000798256 -9.578e-07 4.92598e-08)
(0.000796029 -5.66874e-07 9.67809e-08)
(0.00079431 -3.28685e-07 8.6784e-08)
(0.000793045 -1.86054e-07 2.37049e-08)
(0.000791175 1.29621e-07 1.0908e-08)
(0.000789135 2.097e-07 7.34414e-08)
(0.000787568 -3.95083e-08 4.92075e-08)
(0.000785956 -2.19277e-07 -2.0277e-08)
(0.000784585 -2.73245e-07 5.37035e-08)
(0.00078313 -2.60686e-07 4.9724e-08)
(0.000781561 -2.99471e-07 2.79773e-08)
(0.000780476 -3.40335e-07 5.85349e-08)
(0.000778998 -1.3634e-07 1.99618e-08)
(0.000777257 -7.62174e-08 4.52054e-08)
(0.000776131 1.53021e-07 9.35128e-08)
(0.000774691 5.01899e-07 3.54641e-08)
(0.000772875 2.74922e-07 1.12462e-07)
(0.000771557 1.60143e-07 5.29321e-08)
(0.000769987 -1.61829e-08 7.99737e-08)
(0.000768327 -9.41302e-08 5.93971e-08)
(0.000766919 -1.1341e-07 6.50463e-08)
(0.000765455 -2.43695e-07 7.16145e-08)
(0.000764298 -4.84394e-09 3.99109e-08)
(0.000763337 -1.74739e-07 5.03608e-08)
(0.00076186 -3.43521e-07 8.01377e-08)
(0.000759952 -4.59682e-07 3.16995e-08)
(0.000758476 -1.61879e-07 4.90402e-08)
(0.000757242 -5.90971e-08 4.36027e-09)
(0.000755636 -8.4669e-09 5.82027e-08)
(0.000754331 1.63121e-07 4.61029e-08)
(0.000753188 1.62885e-07 4.88467e-08)
(0.000751885 1.56213e-07 -5.96276e-09)
(0.000750571 3.16488e-07 5.30342e-08)
(0.000748626 1.00767e-06 2.59712e-08)
(0.000747235 7.85072e-07 -8.68202e-08)
(0.000746587 3.40113e-07 8.91567e-08)
(0.00235632 0.00511717 -0.000791926)
(0.0137219 -0.00477473 0.000585415)
(-0.0306289 -0.00467477 -0.000299763)
(-0.0141537 -0.026742 0.000450144)
(0.00464822 -0.0035103 0.000434517)
(0.0124177 -0.00686491 -0.000475496)
(0.000310796 2.96174e-05 6.56824e-06)
(0.000864778 2.56407e-06 -2.3037e-06)
(0.000827016 9.80015e-07 -9.21369e-08)
(0.000821315 1.12105e-06 1.86727e-07)
(0.000813484 5.77713e-07 9.43923e-08)
(0.000808136 1.53871e-07 9.84264e-08)
(0.000803798 -4.92134e-08 6.38189e-08)
(0.000800929 3.19954e-07 7.28225e-08)
(0.000798771 1.62303e-07 5.0182e-08)
(0.000796583 1.12305e-07 6.44966e-08)
(0.000794519 1.25074e-07 4.5099e-08)
(0.000792794 -1.51122e-08 3.39539e-08)
(0.0007913 -3.4704e-07 6.37684e-08)
(0.000789335 -5.28443e-07 -2.83259e-08)
(0.000787374 -3.47217e-07 2.64469e-08)
(0.000785958 -2.22214e-07 6.52158e-08)
(0.000784601 -1.01085e-07 5.15088e-08)
(0.000783147 -1.58716e-07 4.55801e-08)
(0.000781745 -1.15109e-07 5.7794e-08)
(0.000780329 8.91999e-08 4.03089e-08)
(0.000778909 -6.78849e-08 6.98144e-08)
(0.000777291 9.17965e-08 4.67659e-08)
(0.000776037 4.57752e-07 -5.13291e-09)
(0.000774858 -1.54051e-07 1.13676e-07)
(0.000772984 -2.31409e-07 8.67574e-08)
(0.000771239 -2.5281e-07 4.4559e-08)
(0.0007698 -6.43372e-07 2.21236e-08)
(0.000768455 -3.33275e-07 1.161e-08)
(0.000767059 -1.21665e-07 5.42247e-08)
(0.000765912 8.06213e-08 8.17048e-08)
(0.000764449 2.00875e-07 5.09738e-08)
(0.000762547 -1.11e-08 4.52855e-08)
(0.000761196 -3.59687e-07 4.59663e-09)
(0.000760224 -4.85037e-07 5.8631e-08)
(0.000758924 -1.42135e-07 5.2818e-08)
(0.000757327 -5.28099e-08 4.54808e-08)
(0.000756062 1.53619e-08 3.51693e-08)
(0.000754638 2.76277e-07 2.32686e-08)
(0.000753031 9.43073e-08 -3.38168e-08)
(0.000751711 7.07521e-08 4.49186e-08)
(0.000750836 -3.51732e-08 2.10507e-08)
(0.000749362 -1.54518e-08 1.80166e-08)
(0.000747112 3.51001e-07 -4.38182e-08)
(0.000745613 2.31183e-07 6.56165e-08)
(0.00297963 -0.00733182 -0.000960997)
(0.0129816 0.00452988 0.00046353)
(0.0516781 -0.0181505 0.00143771)
(0.00740944 -0.00871912 -0.00667129)
(0.00535877 -0.018142 -0.000689237)
(-0.00419695 0.00809997 -0.00226271)
(0.0014692 -7.5004e-05 -1.86975e-06)
(0.00144625 -2.63894e-06 3.41846e-07)
(0.0013693 9.723e-06 3.39909e-07)
(0.00136208 7.13971e-06 3.57033e-07)
(0.00135126 6.11898e-06 3.71121e-07)
(0.00134423 4.09315e-06 3.11404e-07)
(0.00133996 2.9071e-06 2.59612e-07)
(0.00133553 2.28379e-06 3.73047e-07)
(0.00133128 1.42112e-06 3.40847e-07)
(0.00132811 8.73223e-07 2.59047e-07)
(0.00132519 3.52537e-07 3.33293e-07)
(0.00132243 2.71741e-07 3.28441e-07)
(0.00131927 1.60851e-07 3.84372e-07)
(0.0013169 -4.04037e-07 4.09608e-07)
(0.00131491 -3.22865e-07 3.29893e-07)
(0.00131209 -4.36269e-08 3.69974e-07)
(0.00130943 -1.60184e-07 3.51646e-07)
(0.00130693 2.77676e-08 2.86969e-07)
(0.00130481 5.45169e-07 3.2748e-07)
(0.0013025 4.42476e-07 3.00711e-07)
(0.00129997 3.60603e-07 2.75865e-07)
(0.00129817 1.11547e-07 3.33173e-07)
(0.00129473 2.05492e-07 3.10395e-07)
(0.00129142 -4.95167e-07 3.47822e-07)
(0.00128956 -1.2028e-06 2.29974e-07)
(0.00128672 -9.66062e-07 1.5493e-07)
(0.00128477 -5.96881e-07 3.30422e-07)
(0.00128328 -3.59128e-07 3.70221e-07)
(0.00128075 5.44775e-08 3.88141e-07)
(0.00127808 2.33463e-07 3.33412e-07)
(0.00127523 -5.50386e-08 3.03607e-07)
(0.00127257 2.76818e-07 2.84e-07)
(0.00127042 7.4681e-07 1.48644e-07)
(0.00126875 7.6869e-07 3.35389e-07)
(0.00126662 2.86798e-07 2.80188e-07)
(0.00126402 2.15621e-07 3.46896e-07)
(0.00126179 -1.27011e-07 3.99684e-07)
(0.00125898 -4.36954e-07 7.02781e-07)
(0.00125645 -3.25457e-07 3.23883e-07)
(0.00125447 -2.53487e-07 3.26272e-07)
(0.0012523 -4.72339e-07 2.86011e-07)
(0.00125009 -8.65164e-07 2.95434e-07)
(0.00124746 -7.98049e-07 1.90658e-07)
(0.00124465 -4.44524e-07 3.42954e-07)
(-0.000987403 -0.00595252 -0.000413585)
(0.00518862 0.00325209 -0.0010628)
(-0.0114451 -0.0337386 0.00936552)
(-0.00834939 -0.0199648 0.0170749)
(-0.01252 0.00474979 -0.00336891)
(-0.0118341 0.00225059 -0.00041432)
(0.00145351 0.0001952 1.76053e-06)
(0.00144374 2.58564e-05 3.5831e-07)
(0.00138007 6.25055e-05 4.10143e-07)
(0.00135835 2.07141e-05 3.58409e-07)
(0.00134902 1.47976e-05 3.36461e-07)
(0.00134175 8.43581e-06 3.3486e-07)
(0.00133737 5.2098e-06 3.35004e-07)
(0.00133364 2.74047e-06 3.32738e-07)
(0.00133054 1.67118e-06 3.32446e-07)
(0.0013276 8.09436e-07 2.8884e-07)
(0.00132491 7.47953e-07 3.31648e-07)
(0.00132264 4.78546e-07 3.95096e-07)
(0.00131957 2.32846e-07 4.93025e-07)
(0.00131658 3.76484e-07 2.9939e-07)
(0.0013144 3.56163e-07 3.62385e-07)
(0.00131181 2.72122e-07 3.34945e-07)
(0.00130947 8.79687e-07 3.00479e-07)
(0.00130783 8.30822e-07 7.96177e-07)
(0.00130504 8.10156e-07 3.27207e-07)
(0.00130197 2.4877e-07 3.49833e-07)
(0.00129952 -1.10922e-09 3.89727e-07)
(0.00129701 -3.94272e-07 3.25128e-07)
(0.00129434 -1.4878e-06 4.17774e-07)
(0.00129136 -8.30319e-07 1.22488e-07)
(0.0012894 -7.01782e-07 3.5856e-07)
(0.00128777 -4.07765e-07 3.13746e-07)
(0.00128534 7.53804e-07 6.40547e-07)
(0.00128319 7.40596e-07 6.2837e-07)
(0.0012808 2.5948e-07 3.3049e-07)
(0.00127799 1.27052e-07 3.14933e-07)
(0.00127576 1.553e-07 3.00456e-07)
(0.00127356 3.45568e-07 3.65543e-07)
(0.00127093 6.9337e-07 3.06167e-07)
(0.0012681 7.40365e-07 2.78953e-07)
(0.00126573 2.86487e-07 3.24545e-07)
(0.00126326 -2.05417e-07 3.43501e-07)
(0.00126084 -7.28877e-07 3.63802e-07)
(0.00125911 -6.65892e-07 3.0124e-07)
(0.00125699 -1.49265e-07 3.51708e-07)
(0.00125427 -7.49987e-09 3.31641e-07)
(0.00125214 3.18887e-07 2.86348e-07)
(0.0012501 -4.92433e-08 3.14187e-07)
(0.00124744 -3.19756e-07 3.27182e-07)
(0.00124582 -3.73247e-07 2.15134e-07)
(0.000941001 0.00586737 0.00416858)
(0.0212889 -0.0381808 -0.00190304)
(0.0087088 0.00345702 0.000788047)
(-0.00351142 0.0996807 -0.0133075)
(-0.017041 -0.0016404 -0.0209382)
(-0.0045725 -0.00519849 -0.000365988)
(0.000708954 0.00106044 -1.22253e-05)
(0.00132584 4.53172e-05 8.11082e-07)
(0.00142343 6.15556e-05 -2.41801e-07)
(0.00130285 2.05975e-05 3.23757e-07)
(0.00133598 1.50938e-05 3.34036e-07)
(0.00133228 8.55874e-06 3.32717e-07)
(0.00133286 5.1382e-06 3.40295e-07)
(0.00133112 3.01918e-06 3.32843e-07)
(0.00132888 1.78951e-06 3.32287e-07)
(0.00132697 9.16491e-07 3.31953e-07)
(0.00132478 3.35047e-07 3.17689e-07)
(0.00132179 -8.0286e-08 2.42937e-07)
(0.00131914 -7.21006e-07 2.2913e-07)
(0.00131705 -3.31854e-07 3.20488e-07)
(0.00131478 -1.50324e-07 2.7204e-07)
(0.00131274 3.17648e-08 3.26815e-07)
(0.00131013 3.26719e-07 3.56731e-07)
(0.00130683 2.03644e-07 2.54558e-07)
(0.00130408 -3.58086e-07 2.91984e-07)
(0.00130149 5.18315e-08 2.98007e-07)
(0.00129916 -1.68508e-07 3.38967e-07)
(0.00129632 -8.87366e-08 3.1592e-07)
(0.00129419 -1.10446e-07 1.40889e-07)
(0.00129241 7.17017e-07 2.42048e-07)
(0.0012901 1.22169e-06 3.22368e-07)
(0.00128854 1.17292e-06 3.21738e-07)
(0.00128621 6.20375e-07 7.85477e-07)
(0.00128265 6.25557e-07 4.21782e-07)
(0.00127998 1.63054e-07 3.63835e-07)
(0.00127794 1.98152e-07 3.32084e-07)
(0.0012755 2.13942e-07 4.77224e-07)
(0.00127324 1.09619e-07 3.62293e-07)
(0.00127091 8.13771e-08 3.30728e-07)
(0.00126823 -7.27945e-08 3.0171e-07)
(0.00126544 -1.43067e-07 3.62823e-07)
(0.00126276 1.12716e-08 3.86374e-07)
(0.00126122 7.71231e-07 6.95742e-07)
(0.00125971 7.53735e-07 2.80065e-07)
(0.00125728 6.07482e-07 3.3743e-07)
(0.00125506 5.13656e-07 3.93068e-07)
(0.00125225 9.37254e-07 3.04696e-07)
(0.0012493 4.87121e-07 2.33137e-07)
(0.00124707 3.31124e-07 3.2965e-07)
(0.00124551 1.61704e-07 3.92821e-07)
(-0.00939961 -0.00447119 -0.00123807)
(-0.00452742 -0.00420447 0.0876847)
(0.00189082 -0.0101853 -0.000410207)
(0.00810163 0.004403 -0.00615106)
(0.00399128 -0.00197291 0.000720683)
(0.00394953 0.0103989 0.000436596)
(0.00158784 0.000177251 5.59659e-05)
(0.0012898 1.04296e-05 7.12847e-07)
(0.00143736 1.93563e-05 2.9746e-07)
(0.00130013 8.24453e-06 4.64971e-07)
(0.00133398 7.11887e-06 3.34858e-07)
(0.00132931 4.60142e-06 3.28695e-07)
(0.00133045 2.7558e-06 3.32365e-07)
(0.00132946 1.83443e-06 3.32372e-07)
(0.00132792 1.4437e-06 3.31699e-07)
(0.00132578 1.0994e-06 3.3146e-07)
(0.00132367 3.46433e-07 3.67389e-07)
(0.00132133 1.99524e-08 2.77743e-07)
(0.00131926 -1.07338e-07 3.01951e-07)
(0.00131729 -5.62227e-07 2.96576e-07)
(0.00131486 -3.73691e-07 3.32245e-07)
(0.0013124 -5.10847e-07 3.28196e-07)
(0.00130968 -7.99963e-07 2.98726e-07)
(0.00130698 -5.8285e-07 3.91371e-07)
(0.00130485 -3.99208e-07 4.74643e-07)
(0.0013022 -2.44738e-07 3.96462e-07)
(0.00129934 2.53533e-07 3.92598e-07)
(0.00129708 5.11928e-07 3.83982e-07)
(0.00129535 1.40336e-06 2.88552e-07)
(0.00129302 9.93416e-07 4.80015e-07)
(0.00128996 1.2114e-06 3.07277e-07)
(0.00128701 1.2249e-06 -3.61043e-08)
(0.00128465 3.62685e-07 3.18081e-07)
(0.00128261 -5.50865e-08 3.19208e-07)
(0.00128026 2.12572e-07 3.29127e-07)
(0.00127805 9.11588e-08 3.06223e-07)
(0.00127565 4.63453e-08 3.23906e-07)
(0.0012734 -8.89464e-08 4.05282e-07)
(0.0012707 -6.73843e-07 1.88818e-07)
(0.00126782 -5.02224e-07 9.08816e-09)
(0.00126584 -1.35956e-07 3.10504e-07)
(0.00126441 3.82378e-07 4.29899e-07)
(0.00126176 8.72097e-07 4.80072e-07)
(0.0012589 5.34649e-07 3.19892e-07)
(0.00125668 1.18256e-07 3.24718e-07)
(0.00125468 -1.10262e-08 6.90377e-07)
(0.0012521 -2.63786e-07 3.92176e-07)
(0.00124934 3.69742e-08 3.16682e-07)
(0.00124702 2.95455e-07 3.16317e-07)
(0.0012452 3.71616e-07 2.27457e-07)
(0.0190616 0.032978 -0.02957)
(0.006851 0.0656278 0.0612864)
(-0.0083698 -0.0221921 0.00472332)
(0.0149517 0.00229641 0.002839)
(0.00612105 0.00263232 0.000170995)
(-0.00266636 -0.000397292 0.00253895)
(1.38822e-05 0.00130991 1.69478e-05)
(0.00138686 2.04879e-05 6.09485e-06)
(0.00145644 5.22113e-06 4.33389e-07)
(0.00128777 -5.61283e-07 3.96133e-07)
(0.0013314 8.70385e-08 3.51275e-07)
(0.0013268 -4.78885e-07 3.85319e-07)
(0.00132939 7.64657e-08 4.1342e-07)
(0.00132947 -1.41677e-07 3.32724e-07)
(0.00132795 -4.08506e-07 3.56731e-07)
(0.00132559 -3.1704e-07 3.2958e-07)
(0.00132342 7.44552e-08 3.30168e-07)
(0.00132122 5.85647e-08 3.30176e-07)
(0.00131842 4.2909e-07 4.83682e-07)
(0.00131672 8.026e-07 2.93006e-07)
(0.00131485 -8.82256e-08 3.59772e-07)
(0.00131221 3.49117e-07 2.58271e-07)
(0.00131004 8.78994e-08 7.33993e-07)
(0.00130734 1.27807e-07 1.24217e-07)
(0.0013045 2.43012e-07 2.43906e-07)
(0.0013023 -2.10409e-07 3.22958e-07)
(0.0013001 1.63092e-07 3.78437e-07)
(0.00129775 3.17431e-07 3.09432e-07)
(0.00129478 4.78069e-07 2.60145e-07)
(0.00129216 2.91081e-07 3.49915e-07)
(0.00129038 8.72431e-08 3.41946e-07)
(0.00128747 -3.72376e-07 2.94474e-07)
(0.0012846 2.21938e-07 3.50303e-07)
(0.00128246 8.77842e-08 3.21895e-07)
(0.00128016 1.27938e-07 3.55607e-07)
(0.00127774 -7.61734e-08 3.16805e-07)
(0.00127528 -3.03499e-07 2.57199e-07)
(0.00127234 -3.76861e-07 2.99458e-07)
(0.0012704 -4.31816e-07 4.65388e-07)
(0.00126891 -2.59392e-07 2.54984e-07)
(0.00126654 3.00038e-08 3.08137e-07)
(0.00126401 -7.79294e-08 9.98086e-07)
(0.00126141 -4.91009e-07 2.4642e-07)
(0.00125876 -3.59617e-07 -1.92257e-07)
(0.0012566 -4.88398e-07 5.99461e-07)
(0.00125458 -5.54064e-07 3.15548e-07)
(0.00125231 -1.01922e-06 1.07767e-07)
(0.00124999 -8.18176e-07 -3.04675e-09)
(0.00124747 -4.56939e-07 3.06741e-07)
(0.00124468 1.5447e-07 4.11929e-07)
(-0.0194035 0.0361387 0.0117685)
(-0.00317783 -0.0112238 -0.00238016)
(-0.00288247 0.0152836 -0.00206968)
(-0.0202293 0.00305761 0.00407981)
(0.0039046 0.00343433 0.00309246)
(0.0205033 0.00258015 8.16531e-05)
(0.00101138 0.00115009 -0.000152179)
(0.00137866 -4.9737e-05 6.56369e-06)
(0.00144991 -3.27058e-05 4.28237e-07)
(0.00129334 -1.33359e-05 3.82015e-07)
(0.00133401 -9.21954e-06 2.92284e-07)
(0.00132925 -5.47705e-06 3.19911e-07)
(0.00133085 -3.05691e-06 3.71405e-07)
(0.00132884 -2.0241e-06 3.31486e-07)
(0.00132769 -1.53553e-06 3.35593e-07)
(0.00132638 -1.05233e-06 3.43017e-07)
(0.00132414 -5.33119e-07 3.3122e-07)
(0.00132177 -1.31465e-07 3.65911e-07)
(0.00132019 6.78025e-08 3.27071e-07)
(0.00131664 1.05464e-06 4.01213e-07)
(0.00131429 1.14744e-06 3.58755e-07)
(0.00131262 8.30439e-07 4.45037e-07)
(0.00130941 5.66434e-07 3.11451e-07)