/*--------------------------------*- C++ -*----------------------------------*\
| =========                 |                                                 |
| \\      /  F ield         | OpenFOAM: The Open Source CFD Toolbox           |
|  \\    /   O peration     | Version:  5.0                                   |
|   \\  /    A nd           | Web:      www.OpenFOAM.org                      |
|    \\/     M anipulation  |                                                 |
\*---------------------------------------------------------------------------*/
FoamFile
{
    version     2.0;
    format      ascii;
    class       surfaceVectorField;
    location    "2.6";
    object      Uf;
}
// * * * * * * * * * * * * * * * * * * * * * * * * * * * * * * * * * * * * * //

dimensions      [0 1 -1 0 0 0 0];

internalField   nonuniform List<vector> 
27952
(
(0.00371552 0.00657399 0.000435231)
(0.000242854 0.00294455 0.000418578)
(0.00473511 -0.00176106 -0.000337765)
(0.00776169 -0.00570347 0.000652276)
(0.0101751 0.00530676 0.00128258)
(0.0151536 -0.00765651 0.00104622)
(-0.00616874 -0.00174307 0.00045244)
(0.000906249 0.000399644 0.000520965)
(0.00373183 -0.00252082 -0.000619114)
(-0.00626108 0.00291078 0.00236855)
(0.00422355 0.000254066 0.000651883)
(0.000682548 0.0073474 0.000827249)
(0.000266629 0.00362783 0.000737386)
(0.0179431 0.00491058 -0.000108483)
(0.0176168 0.00560002 -0.00293415)
(0.00893376 0.0178303 -0.000753033)
(0.00457464 -0.0075929 -0.000248877)
(-0.00266241 -0.000136924 0.00133674)
(0.00450036 0.00997596 -0.00105227)
(-0.00617369 -0.000661161 -0.000143425)
(0.00796798 -0.00488226 -0.00139038)
(0.00836566 0.00468497 -0.00193393)
(0.00553954 0.00834827 -0.0111285)
(0.000407653 0.00954567 0.0129235)
(0.0140555 -0.00036227 0.00949988)
(0.0185294 -0.00127681 -0.0102634)
(0.00706102 0.0127834 -0.00073357)
(0.000384294 0.0102821 -9.07982e-05)
(0.000724844 -0.00781388 -0.0010724)
(-0.0076675 0.0050424 0.000361298)
(0.000398438 0.0019027 -3.32978e-05)
(-0.00185181 -0.00279551 1.44421e-05)
(-0.00413256 0.00207224 -9.9844e-05)
(-0.00538852 -0.00399974 -0.000163828)
(0.00042188 6.48709e-05 2.08187e-05)
(0.000428151 7.28874e-05 -7.13931e-07)
(0.000783558 0.000112734 9.8189e-06)
(0.000404579 7.78245e-05 2.98779e-05)
(0.000574537 9.93002e-05 4.93703e-05)
(0.000674704 0.000174843 6.92726e-05)
(0.000340766 6.18188e-05 5.13925e-06)
(0.000550976 0.000108498 1.03994e-05)
(0.000566885 6.71863e-05 -1.21269e-06)
(0.00031459 3.53247e-05 -3.49705e-07)
(0.000796549 4.22405e-05 -1.04021e-06)
(0.000804286 3.07972e-05 -2.26917e-06)
(0.00109201 6.2283e-05 -1.18572e-06)
(0.000558339 6.25837e-05 -4.90433e-06)
(0.000555023 4.96254e-05 -4.8164e-06)
(0.000942596 0.000108581 -4.40005e-06)
(0.000946107 8.49237e-05 -5.2834e-06)
(0.000800913 2.53069e-05 -1.04447e-08)
(0.000790034 3.03229e-05 -1.42019e-07)
(0.001061 3.95408e-05 1.53905e-07)
(0.000804267 1.4726e-05 9.28773e-08)
(0.000798905 1.47528e-05 2.53991e-08)
(0.00107247 2.22469e-05 2.02751e-07)
(0.000804285 9.01003e-06 7.35715e-08)
(0.000801872 9.76199e-06 5.70736e-08)
(0.00107295 1.38842e-05 1.80736e-07)
(0.000803945 5.49636e-06 2.42882e-08)
(0.000802411 5.94805e-06 3.96484e-08)
(0.00107233 8.34094e-06 1.8143e-07)
(0.000803063 3.42112e-06 2.42691e-08)
(0.000802405 3.75676e-06 1.86206e-08)
(0.00107153 5.24514e-06 1.87716e-07)
(0.000801776 2.1272e-06 4.71351e-08)
(0.000801636 2.29038e-06 4.80802e-08)
(0.00106992 3.25707e-06 1.75695e-07)
(0.000800155 1.33784e-06 2.65023e-08)
(0.000800467 1.3468e-06 4.50422e-08)
(0.00106781 2.05905e-06 1.73253e-07)
(0.00079858 7.61574e-07 3.20958e-08)
(0.000799067 1.43044e-06 2.88008e-08)
(0.00106568 1.28685e-06 1.66637e-07)
(0.00079721 3.19139e-07 5.92597e-08)
(0.000797583 3.90421e-07 5.07372e-08)
(0.00106366 6.14009e-07 1.7872e-07)
(0.000796128 -3.40052e-08 4.16466e-08)
(0.000796221 -1.53774e-07 6.82805e-08)
(0.00106214 1.89226e-07 1.8897e-07)
(0.000793343 -1.09309e-07 1.12729e-07)
(0.000794741 2.67269e-06 8.90736e-08)
(0.00105944 -2.49566e-07 1.05101e-07)
(0.000792157 -2.43838e-08 1.35203e-07)
(0.000793135 -2.47088e-07 1.1713e-07)
(0.00105676 -3.60312e-08 1.71567e-07)
(0.000790878 1.34332e-08 4.64017e-08)
(0.000791653 7.20833e-08 6.34071e-08)
(0.00105532 -5.06753e-08 1.30003e-07)
(0.000789244 5.93741e-08 5.66562e-08)
(0.000790076 -4.66659e-08 3.56345e-08)
(0.00105323 1.17709e-07 1.69167e-07)
(0.000787997 7.56094e-08 6.482e-08)
(0.000788573 -1.15719e-06 7.47609e-08)
(0.00105128 9.09614e-08 2.35584e-07)
(0.000786464 1.66978e-07 5.29417e-08)
(0.00078721 -8.08846e-09 3.17249e-08)
(0.00104947 1.47935e-07 1.78763e-07)
(0.000784916 4.11998e-07 6.46172e-08)
(0.000785778 1.77263e-07 5.4111e-08)
(0.00104747 3.57765e-07 2.04251e-07)
(0.0007831 4.5241e-07 5.66079e-08)
(0.00078402 -1.08247e-06 5.20176e-08)
(0.0010452 7.97417e-07 1.71171e-07)
(0.000781787 2.40474e-07 4.58688e-08)
(0.00078233 3.66257e-07 3.67799e-08)
(0.00104307 4.34502e-07 1.5097e-07)
(0.000780295 2.09204e-07 2.63074e-08)
(0.000781048 8.65235e-08 4.52435e-08)
(0.00104144 2.1349e-07 1.72403e-07)
(0.000778738 6.97004e-08 1.09529e-07)
(0.000779395 -1.09308e-07 3.86245e-08)
(0.00103922 3.15242e-07 1.24664e-07)
(0.00077724 -2.72265e-07 1.44906e-07)
(0.000777687 2.06156e-07 1.27961e-07)
(0.00103706 -1.98998e-07 1.49124e-07)
(0.000775312 -4.58319e-07 7.0924e-09)
(0.000776244 -7.08911e-07 -2.3777e-08)
(0.00103494 -6.45921e-07 3.64985e-07)
(0.000773973 -4.02097e-07 1.02786e-08)
(0.000774737 -5.80911e-07 -2.98146e-08)
(0.00103262 -6.72742e-07 3.19587e-07)
(0.000772431 -1.27059e-07 8.47196e-08)
(0.000773493 -5.8086e-08 1.1364e-07)
(0.00103075 -4.28338e-07 1.61657e-07)
(0.000771796 1.26063e-07 6.96463e-08)
(0.000772351 -2.24104e-06 8.74871e-08)
(0.00102949 5.89258e-08 2.28123e-07)
(0.000769991 2.05925e-07 5.89881e-08)
(0.000770793 1.85684e-07 4.84448e-08)
(0.00102784 2.55321e-07 1.68775e-07)
(0.000768198 1.86658e-07 4.76703e-08)
(0.000769101 7.59274e-08 4.9487e-08)
(0.00102536 3.17214e-07 2.18232e-07)
(0.000766735 1.99629e-07 1.37397e-08)
(0.000767631 2.0165e-07 4.20401e-08)
(0.00102316 1.94545e-07 1.693e-07)
(0.000765079 3.72283e-07 3.35236e-08)
(0.000766175 3.73705e-07 1.39797e-10)
(0.00102097 3.4102e-07 1.40755e-07)
(0.000764535 3.3633e-07 8.15441e-08)
(0.000764747 -1.6503e-06 9.80751e-08)
(0.00101959 6.83098e-07 1.91309e-07)
(0.000762768 9.88624e-08 5.94013e-08)
(0.000763309 2.61476e-07 2.08488e-07)
(0.00101818 2.95104e-07 1.77595e-07)
(0.00076133 -2.67987e-09 4.58572e-08)
(0.000761824 -2.92355e-08 4.22055e-08)
(0.00101594 5.13334e-08 1.65207e-07)
(0.000760187 -1.50127e-07 6.22426e-08)
(0.000760453 -1.83644e-07 6.4505e-08)
(0.00101418 -1.2819e-08 1.54421e-07)
(0.000758669 -3.48837e-07 2.48029e-08)
(0.000759093 1.08152e-06 6.96145e-08)
(0.00101261 -3.43394e-07 1.32955e-07)
(0.000756416 -3.25296e-07 1.58179e-08)
(0.000757623 2.73061e-06 5.47875e-08)
(0.0010099 -5.28323e-07 6.53222e-08)
(0.000755343 -1.83389e-07 4.21147e-08)
(0.000756199 -3.48078e-07 4.70885e-08)
(0.0010077 -3.08201e-07 1.69272e-07)
(0.000753983 -1.01287e-07 4.77975e-08)
(0.000754808 4.46634e-08 4.92895e-08)
(0.00100619 -2.05629e-07 1.5464e-07)
(0.000752844 -1.01752e-07 4.67023e-08)
(0.000753425 -9.66126e-08 5.3283e-08)
(0.00100441 -1.11375e-07 1.63348e-07)
(0.000751422 -2.34698e-07 4.35169e-08)
(0.000752079 1.16827e-07 2.11973e-08)
(0.00100283 -2.24383e-07 1.69645e-07)
(0.000749723 -3.59142e-07 2.60608e-08)
(0.000750563 -3.55253e-07 9.68085e-09)
(0.00100066 -4.52393e-07 2.11247e-07)
(0.00074925 8.83914e-07 5.79435e-08)
(0.000998504 -5.03403e-07 1.0562e-07)
(-0.00566837 -0.00224575 0.000480953)
(-0.00633246 0.00103164 0.00161918)
(-0.00248804 -0.00111453 0.00063837)
(0.00719177 -0.012411 5.8942e-05)
(0.00304506 -0.00617063 0.000119355)
(0.0116806 -0.00740131 -0.00107764)
(-0.00474761 -0.00598221 -9.07878e-05)
(0.00641901 -0.00765218 -0.000520302)
(0.00663295 -0.010651 -0.000877284)
(0.0120029 -0.00400028 -0.0013017)
(0.0199022 -0.0017261 -0.000896558)
(0.00030887 -0.0168715 4.83591e-05)
(-0.0153003 -0.0134872 0.000228795)
(-0.00830027 -0.0241802 -0.000461177)
(-0.00622552 -0.00727358 -0.000621663)
(-0.0049842 -0.0067714 -0.00121554)
(-0.0259463 0.0217117 0.00444413)
(-0.0132568 0.0072316 0.000804577)
(-0.0360489 -0.00622567 -0.000569979)
(-0.0307661 -0.00919556 -0.000262403)
(0.0117947 -0.0171757 -0.00838281)
(0.00769902 -0.0207725 -0.00342126)
(-0.00304757 0.00703631 0.00209424)
(0.0188924 -0.0251945 0.00201412)
(-0.0132771 -0.0419651 0.0133108)
(-0.0319264 -0.0410953 0.000904324)
(-0.0314789 -0.127901 -0.00813674)
(-0.00775557 -0.00378954 0.000171731)
(0.00412693 -0.00768685 -0.000249822)
(-0.0210374 -0.00595617 -0.0039923)
(-0.0211696 -0.00735375 -0.00215332)
(-0.0232251 0.000988829 0.00182749)
(-0.000875469 0.00552946 3.83049e-05)
(-0.00115122 -0.00056615 0.0003366)
(-0.00105709 0.00184098 0.000116259)
(-0.00245904 -0.00318792 0.000113719)
(-0.00350613 0.00456573 0.000579047)
(0.000542991 -5.78309e-05 2.98148e-05)
(0.000296284 3.12189e-05 9.89957e-06)
(0.000353604 2.14159e-05 2.10426e-05)
(0.000474965 5.61746e-05 2.93244e-05)
(0.000203174 2.70189e-05 6.1693e-06)
(0.000787117 1.87088e-05 -1.37167e-06)
(0.000545326 -3.79591e-06 -1.18472e-06)
(0.00106596 6.83244e-06 -1.16917e-06)
(0.000536369 1.52272e-05 -4.99323e-06)
(0.00054406 -3.96658e-06 -4.66232e-06)
(0.000918944 3.26401e-05 -5.17158e-06)
(0.00093452 -5.1058e-06 -4.04573e-06)
(0.000518738 -2.52338e-05 -4.24925e-06)
(0.000923867 -5.3449e-06 -8.15236e-07)
(0.000860693 -3.86373e-05 -5.15735e-06)
(0.000790921 2.08606e-05 -1.0623e-07)
(0.000812066 2.44124e-05 -7.53718e-07)
(0.00105278 4.15952e-05 1.16391e-07)
(0.000798062 8.98254e-06 -1.04149e-08)
(0.000784129 3.85544e-06 -2.69087e-07)
(0.00106142 1.30387e-05 1.7259e-07)
(0.000800317 6.25177e-06 2.31561e-08)
(0.000798447 4.86099e-06 1.1692e-07)
(0.00106713 1.0203e-05 1.80346e-07)
(0.00080123 3.77531e-06 3.39876e-08)
(0.000799307 2.7669e-06 3.37718e-08)
(0.00106826 5.96231e-06 1.78558e-07)
(0.000801119 2.32878e-06 4.24222e-08)
(0.000800592 1.89133e-06 5.50205e-08)
(0.00106858 3.77524e-06 1.77249e-07)
(0.000800475 1.37227e-06 4.59883e-08)
(0.000800438 1.06152e-06 4.87732e-08)
(0.00106783 2.20209e-06 1.79899e-07)
(0.000799431 7.81924e-07 4.7346e-08)
(0.000799728 6.40958e-07 5.07185e-08)
(0.00106663 1.29336e-06 1.78714e-07)
(0.000798103 5.28992e-07 4.74352e-08)
(0.00079875 8.51592e-07 5.30537e-08)
(0.00106496 6.84336e-07 1.94938e-07)
(0.000796493 4.6956e-07 5.97524e-08)
(0.000797508 4.28407e-07 1.14033e-08)
(0.00106299 6.40031e-07 1.77319e-07)
(0.000794921 2.22584e-07 1.15701e-07)
(0.000795912 -1.55103e-07 6.49425e-08)
(0.00106084 5.23146e-07 1.77016e-07)
(0.000794599 8.4052e-08 9.3466e-08)
(0.000794568 6.29616e-07 1.13781e-07)
(0.00105951 2.09643e-08 2.1052e-07)
(0.000792553 1.91086e-07 4.53515e-08)
(0.000793268 2.51041e-07 3.64012e-08)
(0.0010579 1.96441e-07 1.8421e-07)
(0.000790882 1.97216e-07 5.26488e-08)
(0.00079166 3.15833e-08 5.03297e-08)
(0.00105545 3.06547e-07 1.8933e-07)
(0.000789341 2.84602e-07 5.37267e-08)
(0.000790183 8.92839e-08 4.41481e-08)
(0.00105331 2.20304e-07 1.66256e-07)
(0.000787849 3.33227e-07 4.16795e-08)
(0.000788632 2.69378e-07 5.01654e-08)
(0.00105122 5.71622e-07 7.23591e-08)
(0.000786438 2.22825e-07 3.28871e-08)
(0.00078707 2.58497e-07 1.74953e-08)
(0.00104945 3.98529e-07 1.46211e-07)
(0.000785113 6.18966e-08 4.15122e-08)
(0.000785576 4.92283e-08 3.96138e-08)
(0.00104764 3.0241e-07 1.66571e-07)
(0.000783023 -5.67422e-08 3.21944e-08)
(0.000783871 -4.18991e-07 6.30327e-08)
(0.00104521 -3.48257e-08 1.78119e-07)
(0.000781614 -1.1835e-07 3.61519e-08)
(0.000782253 -9.04963e-09 4.26699e-08)
(0.00104287 -4.16178e-08 1.91496e-07)
(0.000780227 -3.54019e-07 5.75628e-08)
(0.000780755 3.82255e-08 4.99141e-08)
(0.00104111 -2.50526e-07 1.66709e-07)
(0.000778287 -4.91154e-07 5.70289e-08)
(0.000779226 -8.03781e-07 3.34478e-08)
(0.00103887 -7.60653e-07 2.61175e-07)
(0.000776752 -3.8307e-07 -4.06737e-08)
(0.000777825 1.29951e-06 5.14519e-08)
(0.00103641 -6.32215e-07 9.93744e-08)
(0.000775569 -1.97949e-07 -6.06821e-08)
(0.000776477 1.67999e-07 5.77941e-08)
(0.00103477 -4.25534e-07 8.37611e-08)
(0.000774197 2.28016e-07 7.35015e-08)
(0.00077527 4.20648e-07 3.14505e-08)
(0.00103312 -1.39819e-07 9.16764e-08)
(0.000773478 5.79401e-07 1.16415e-07)
(0.000773931 -3.1788e-06 5.9651e-08)
(0.00103165 7.3455e-07 3.26297e-07)
(0.000771448 4.1645e-07 6.62977e-08)
(0.000772145 -2.16008e-06 4.77797e-08)
(0.00102991 8.19832e-07 2.15803e-07)
(0.000769822 1.79021e-07 3.89434e-08)
(0.000770495 3.98078e-07 6.42913e-08)
(0.00102743 2.95189e-07 1.70716e-07)
(0.000768485 1.80877e-07 4.38591e-08)
(0.000769103 -4.16986e-08 4.27917e-08)
(0.00102538 1.81447e-07 1.68549e-07)
(0.000767144 2.70923e-07 2.84533e-08)
(0.000767742 -1.05529e-07 6.31057e-08)
(0.00102361 2.88347e-07 1.82804e-07)
(0.000765763 4.41869e-07 6.4661e-08)
(0.000766387 1.02797e-07 3.00722e-08)
(0.00102192 4.30847e-07 1.84086e-07)
(0.000763616 4.39884e-07 2.24985e-07)
(0.000764742 -6.88434e-07 7.66928e-08)
(0.00101951 7.62519e-07 1.64518e-07)
(0.00076228 1.81911e-07 1.91344e-07)
(0.000762984 3.09573e-07 2.11709e-07)
(0.00101708 4.55532e-07 1.57522e-07)
(0.000760933 -4.36145e-08 6.08464e-08)
(0.000761542 -1.2714e-07 6.24068e-08)
(0.00101536 7.7975e-08 1.69299e-07)
(0.00075943 -2.83032e-07 7.18753e-08)
(0.000760154 -5.54359e-08 6.22885e-08)
(0.00101345 -1.79234e-07 1.67298e-07)
(0.000758001 -4.97907e-07 9.96036e-08)
(0.000758826 3.18596e-07 9.02755e-08)
(0.00101142 -5.71692e-07 2.25318e-07)
(0.000757406 -3.29332e-07 8.60604e-08)
(0.000757836 3.50268e-07 9.2205e-08)
(0.00101022 -7.48191e-07 2.67494e-07)
(0.000755667 -8.96711e-08 5.42627e-08)
(0.0007565 1.98611e-08 5.68465e-08)
(0.00100864 -1.38822e-07 1.72056e-07)
(0.00075423 -9.28899e-11 5.47738e-08)
(0.00075492 1.01354e-08 5.55452e-08)
(0.00100645 -1.37316e-07 1.74355e-07)
(0.000752668 2.77651e-08 2.77878e-08)
(0.00075346 -7.94736e-09 4.30568e-08)
(0.00100453 1.18537e-07 1.77002e-07)
(0.00075125 -9.69619e-08 -1.26353e-08)
(0.000751923 1.39381e-07 3.98904e-08)
(0.00100254 -4.05334e-08 1.68918e-07)
(0.000749968 -1.84441e-07 4.15489e-08)
(0.000750456 4.1105e-07 1.89408e-08)
(0.00100064 -2.28962e-07 1.02572e-07)
(0.000749478 -1.66076e-07 1.04833e-07)
(0.000999251 -2.79471e-07 2.29489e-07)
(-0.00667321 -0.0054153 0.000582033)
(-0.00341254 -0.0153284 0.00017935)
(-0.0177479 -0.00869218 0.00167599)
(-0.00944929 0.000905522 0.00174529)
(-0.0029542 -0.0109956 -0.00138128)
(-0.0274137 0.00454206 -0.00125869)
(0.00620075 0.0159793 -0.00165854)
(0.00232516 0.000873472 -0.00373689)
(-0.00423776 0.00236315 -0.0016043)
(-0.0079729 -0.00541522 -0.000246877)
(0.00522663 -0.0146031 -0.000453703)
(-0.00726678 -0.00273609 -2.68255e-06)
(0.017815 -0.00708915 -0.00184585)
(0.0136543 -0.000807751 -0.000368148)
(-0.00218314 -0.00267122 0.000649068)
(0.0346726 0.00498891 -0.00213695)
(-0.0212499 -0.0269356 0.00340282)
(-0.00606971 -0.0190537 -0.00323287)
(-0.0459667 -0.0192531 0.010166)
(0.0298095 0.00899944 0.00701992)
(-0.0161574 0.0521712 -0.000146234)
(-0.00663133 0.0428254 -0.00189511)
(0.0130204 0.0121756 0.00270794)
(-0.0166527 0.0597951 -0.00394103)
(0.0362426 0.0450714 -0.00755541)
(0.0130454 0.0168305 -0.00601678)
(0.0576844 0.0532852 -0.00931963)
(0.11714 0.0278022 0.00444562)
(-0.000634506 0.00239085 -0.00842315)
(0.015538 0.00040751 -0.00462079)
(0.0123822 0.00695455 -0.00447074)
(0.0284596 -0.0234356 -0.0035951)
(0.0110311 0.0105872 -0.00393032)
(0.0313781 -0.0415276 -0.0136964)
(0.00989085 0.0246666 -0.00613966)
(0.0120415 -0.00199128 -0.072109)
(0.0169977 -0.0108696 0.0538106)
(0.0177881 0.00459316 0.0556046)
(0.0106605 -0.000451325 -0.0369793)
(-0.000659418 -0.00294817 9.52626e-05)
(0.00121736 -0.00260713 0.000188539)
(-0.000563222 -0.00151929 -1.43742e-05)
(0.00114229 -0.000615201 -4.15936e-05)
(-0.000782582 -0.00331589 -7.30073e-06)
(0.000642784 2.28741e-05 6.43814e-05)
(0.000643018 -0.000238822 2.26774e-05)
(0.00104903 1.65512e-05 -1.08166e-05)
(0.000878905 -1.35935e-05 -4.15524e-05)
(0.000931292 -0.000110549 1.06743e-05)
(0.000283364 -1.32448e-05 -1.77239e-06)
(0.000434465 -1.84613e-05 -2.91866e-06)
(0.000433618 -3.30524e-05 2.95261e-07)
(0.000705408 -1.86469e-05 -4.34696e-07)
(0.000295676 -1.7336e-05 -2.1126e-06)
(0.000509576 -1.762e-05 -2.77434e-06)
(0.000534054 -2.79913e-05 -2.93159e-06)
(0.000780907 2.82657e-06 -9.16734e-07)
(0.000856066 -1.06471e-05 -1.3024e-06)
(0.00112012 1.37159e-05 -7.39616e-07)
(0.0005533 -1.16273e-05 -3.83809e-06)
(0.000573953 -8.93745e-06 -4.74772e-06)
(0.000902394 -2.43291e-05 -4.74639e-06)
(0.000944174 -1.77883e-05 -6.1761e-06)
(0.000791847 -1.2225e-06 -1.41878e-07)
(0.000779073 -1.01213e-05 -3.9035e-07)
(0.00103346 -2.88295e-06 5.6371e-08)
(0.000796977 4.58563e-07 1.27563e-07)
(0.000800548 -4.13822e-06 2.01064e-07)
(0.00106408 1.37494e-06 2.14792e-07)
(0.000799337 3.27741e-07 5.47979e-08)
(0.000799141 -2.19459e-06 1.82357e-08)
(0.00106428 7.53126e-07 1.76072e-07)
(0.000800118 2.79111e-07 6.13736e-08)
(0.00080053 -1.19316e-06 6.50119e-08)
(0.00106682 6.11253e-07 1.84308e-07)
(0.000799864 1.77663e-07 5.35027e-08)
(0.00080031 -6.52665e-07 5.26009e-08)
(0.00106681 3.98681e-07 1.79863e-07)
(0.000799074 7.64395e-08 5.64254e-08)
(0.000799601 -3.97104e-07 5.26931e-08)
(0.00106592 2.20979e-07 1.79839e-07)
(0.000798302 -1.21938e-08 1.70354e-08)
(0.00079864 -2.43629e-07 5.51895e-08)
(0.00106486 5.66871e-08 1.82854e-07)
(0.000797016 1.06315e-08 1.65762e-08)
(0.000797537 -2.53554e-08 1.74426e-08)
(0.00106346 -6.39103e-08 1.8344e-07)
(0.000795262 1.50596e-07 6.30068e-08)
(0.000796088 -4.18058e-08 4.46918e-08)
(0.00106137 5.89818e-08 1.84821e-07)
(0.000793531 1.33844e-07 5.67409e-08)
(0.000794547 5.2592e-07 5.04793e-08)
(0.00105903 2.08243e-07 1.98135e-07)
(0.000792322 8.99098e-09 4.13749e-08)
(0.000793113 -1.65441e-07 3.66358e-08)
(0.00105712 1.08775e-08 1.74964e-07)
(0.000790902 -4.39633e-09 4.18309e-08)
(0.000791643 2.10907e-07 5.80966e-08)
(0.00105535 -4.67054e-08 1.5229e-07)
(0.000789555 8.73306e-09 4.05848e-08)
(0.0007902 -1.33078e-07 4.8106e-08)
(0.00105355 7.3468e-09 1.74268e-07)
(0.000787796 -3.05054e-08 2.59916e-08)
(0.000788583 -3.44803e-07 1.76624e-08)
(0.0010515 2.54153e-08 2.37771e-07)
(0.000786174 -1.31367e-07 2.4215e-08)
(0.000786944 -2.56353e-07 4.42903e-08)
(0.00104913 -5.37749e-08 2.19148e-07)
(0.00078446 -1.94231e-07 6.11269e-08)
(0.000785497 6.46684e-07 2.75659e-08)
(0.00104692 -2.73886e-07 1.49775e-07)
(0.000782975 -1.8051e-07 7.35146e-08)
(0.000783889 -3.27055e-07 1.11681e-07)
(0.00104476 -2.26578e-07 1.65221e-07)
(0.00078143 -1.37404e-07 5.64299e-08)
(0.000782307 4.0793e-08 5.82531e-08)
(0.0010428 -2.03006e-07 1.73459e-07)
(0.000779802 -1.37269e-07 2.58044e-08)
(0.000780756 -5.84639e-08 5.74085e-08)
(0.00104054 -1.14472e-07 1.91401e-07)
(0.000778618 4.2911e-08 2.78651e-08)
(0.00077945 5.1613e-07 1.64321e-08)
(0.00103875 -1.95785e-07 5.25799e-08)
(0.000777674 3.34116e-07 1.49918e-07)
(0.000778187 7.22103e-07 5.13189e-08)
(0.00103748 3.86562e-07 1.65243e-07)
(0.000776035 4.28579e-07 1.49935e-07)
(0.000776593 3.38421e-07 1.59533e-07)
(0.00103556 6.21001e-07 1.74004e-07)
(0.000775119 4.38361e-07 1.75912e-08)
(0.000775279 3.98187e-07 5.93295e-08)
(0.00103407 6.36617e-07 1.23927e-07)
(0.000772702 2.81449e-07 -8.9809e-09)
(0.000773732 -1.45589e-07 9.20284e-09)
(0.00103195 5.74114e-07 4.0113e-08)
(0.000771039 6.60251e-08 4.57681e-08)
(0.000771875 5.75828e-09 2.7446e-08)
(0.00102894 2.0744e-07 3.47655e-08)
(0.000769755 4.01366e-08 6.81464e-08)
(0.000770462 3.25589e-07 7.49757e-08)
(0.00102703 9.55344e-09 1.60554e-07)
(0.000768372 5.39873e-08 6.20321e-08)
(0.00076912 -1.82731e-07 1.18977e-07)
(0.00102535 9.93526e-08 1.74365e-07)
(0.000766997 -6.3638e-09 6.47349e-08)
(0.000767667 1.28842e-08 5.42223e-08)
(0.00102347 4.92488e-08 1.55397e-07)
(0.000765485 -1.19431e-07 4.20895e-08)
(0.000766245 -9.14007e-08 4.8987e-08)
(0.00102156 -4.24686e-08 1.90258e-07)
(0.000764009 -1.80768e-07 6.33748e-08)
(0.000764666 -3.71491e-07 2.06005e-08)
(0.00101961 -2.42927e-07 1.50636e-07)
(0.000762189 -1.15524e-07 8.2818e-08)
(0.000763067 3.14744e-07 5.49967e-08)
(0.00101732 -2.19101e-07 2.04177e-07)
(0.000760806 -9.49942e-08 6.3849e-08)
(0.000761568 -1.6029e-07 5.96186e-08)
(0.00101515 -9.17359e-08 1.67892e-07)
(0.000759533 5.17415e-08 8.06801e-08)
(0.000760338 -1.98722e-07 2.32561e-08)
(0.00101337 -1.44033e-07 1.66035e-07)
(0.000758474 2.93495e-07 8.28763e-08)
(0.000759127 -1.29809e-06 1.39003e-07)
(0.0010119 3.50142e-07 2.53735e-07)
(0.000757266 2.24945e-07 6.30019e-08)
(0.000757748 5.03418e-08 -8.24645e-09)
(0.00101045 5.0959e-07 1.7218e-07)
(0.000755606 1.20892e-07 5.81294e-08)
(0.000756369 1.48623e-07 4.46153e-08)
(0.00100846 1.96575e-07 1.82313e-07)
(0.000754168 1.73629e-07 4.3832e-08)
(0.000754984 -1.73514e-07 4.54469e-08)
(0.00100651 2.49339e-07 1.85242e-07)
(0.000752689 2.8277e-07 5.51603e-08)
(0.000753595 1.75799e-07 5.18778e-08)
(0.00100453 3.07476e-07 1.62525e-07)
(0.000751144 2.75298e-07 7.14729e-08)
(0.000751912 3.83527e-07 5.70396e-08)
(0.00100239 4.92541e-07 1.64419e-07)
(0.00074975 1.53972e-07 8.21987e-08)
(0.000750303 1.92486e-07 5.43261e-08)
(0.00100037 2.4268e-07 1.84686e-07)
(0.000749286 -1.20655e-06 1.28681e-07)
(0.000999135 1.6492e-07 2.06399e-07)
(-0.00197262 0.00052589 0.000189139)
(-0.00770629 0.0131977 0.000972087)
(-0.00842489 0.0116315 0.0010111)
(-0.0312813 -0.0184244 0.010912)
(-0.0184698 0.012605 0.0027678)
(-0.0343863 0.00773076 0.00817816)
(-0.0267534 -0.0196318 0.00604263)
(-0.00135816 -0.000592669 0.000565981)
(0.00467706 0.0524496 0.00711107)
(0.00844265 0.0193669 -0.00345529)
(0.00686897 0.000319013 0.00046099)
(-0.000545842 0.00737961 0.000946271)
(0.0108164 0.0117895 0.000825949)
(-0.000550724 0.00231264 0.000713962)
(-0.00197134 -0.0155723 0.00317917)
(-0.00223732 -0.00471869 -0.000269349)
(-0.00147565 0.00365741 0.000739259)
(-0.00417556 -0.00920241 -0.000312913)
(0.00285935 -0.0114726 0.000201625)
(-0.00897554 -0.00737892 0.000234932)
(0.00188254 -0.000463496 4.25709e-05)
(0.00272516 -0.000693793 0.000254005)
(0.00707217 0.00603587 -0.00508909)
(0.00338248 0.00454377 0.000565711)
(0.00724795 -0.00602972 0.00027832)
(0.00281486 0.00406293 0.000336188)
(0.0107391 0.000504476 -0.000194624)
(0.00599026 0.00676109 1.48665e-05)
(0.00775288 0.0034123 -0.000420336)
(0.00346664 0.00790966 -0.000984021)
(-0.000369905 0.00205331 9.79766e-06)
(0.0125288 -0.000923752 0.00126441)
(0.00582644 0.00170484 0.000242887)
(0.0121304 0.0016301 0.00712682)
(0.0123694 0.0101623 0.0051703)
(0.00277527 -0.00232723 -0.00562418)
(0.010125 0.00653393 0.00164182)
(0.00203515 -0.00324252 -0.000335402)
(-0.00184154 0.00899182 0.00542521)
(-0.00441858 -0.00236697 0.000439361)
(-0.000519094 -0.0031464 0.000314274)
(-2.5952e-05 -0.00126643 -0.000244872)
(-0.000688943 0.00143699 0.000194834)
(0.000652706 -0.00771843 -0.000147874)
(0.000701044 -0.000134791 1.73756e-05)
(0.00114482 -0.000744903 -4.92799e-05)
(0.000180516 -0.00116425 2.26125e-05)
(0.00177132 -0.00101703 -4.27838e-05)
(0.00160092 -0.00154236 0.000140624)
(0.000643117 0.000116092 1.54728e-05)
(0.00129397 0.000255675 8.68069e-05)
(0.00111179 0.00036751 4.24948e-05)
(0.00168909 0.000295615 -5.42796e-05)
(0.00119787 0.000183066 3.42219e-05)
(0.000350215 -1.83283e-05 2.2209e-07)
(0.000473102 -2.02252e-05 -3.08407e-06)
(0.000473496 -2.63167e-06 8.81724e-07)
(0.000752689 -2.51249e-05 7.33318e-07)
(0.000355805 -1.60693e-05 4.71554e-06)
(0.000649662 -3.08159e-05 6.14562e-06)
(0.000656831 -2.40539e-05 1.48729e-05)
(0.000450344 -2.96254e-05 1.04769e-07)
(0.000798115 -1.37547e-05 -7.76313e-07)
(0.000887184 -1.34992e-05 -9.33041e-07)
(0.00116563 -1.77598e-05 -8.40332e-07)
(0.000600575 -2.00469e-05 -3.78719e-06)
(0.000592922 -1.99144e-05 -4.9367e-06)
(0.000983634 -3.39947e-05 -4.9554e-06)
(0.000963674 -3.49528e-05 -6.57077e-06)
(0.000800326 -9.17183e-06 -4.76017e-08)
(0.000784938 -1.24406e-05 -4.78463e-07)
(0.00104601 -1.45348e-05 4.80199e-09)
(0.000800861 -4.92434e-06 9.17964e-08)
(0.000805869 -7.29528e-06 2.19261e-07)
(0.00107168 -7.22391e-06 2.07903e-07)
(0.00080104 -2.9508e-06 2.84344e-08)
(0.000801612 -4.41695e-06 1.74986e-08)
(0.0010673 -4.26729e-06 1.74935e-07)
(0.000800865 -1.75392e-06 5.62432e-08)
(0.000802029 -3.02123e-06 9.04824e-08)
(0.00106813 -2.60386e-06 1.80215e-07)
(0.000800186 -9.93097e-07 5.17912e-08)
(0.000801263 -1.82088e-06 5.39461e-08)
(0.00106734 -1.47158e-06 1.79057e-07)
(0.000799196 -5.35358e-07 5.14564e-08)
(0.000800174 -1.16338e-06 4.93176e-08)
(0.0010662 -7.95572e-07 1.78568e-07)
(0.000797923 -3.5923e-07 5.56089e-08)
(0.00079886 -6.49076e-07 5.17614e-08)
(0.0010646 -3.79614e-07 1.78627e-07)
(0.000796764 -3.85219e-07 4.55494e-08)
(0.000797505 -4.80334e-07 5.5061e-08)
(0.00106299 -4.17257e-07 1.72679e-07)
(0.000795328 -3.72782e-07 3.21625e-08)
(0.000796104 -9.29435e-08 4.24224e-08)
(0.00106118 -4.88459e-07 1.68729e-07)
(0.000794116 -2.53377e-07 3.03787e-08)
(0.000794697 -1.13813e-07 4.98644e-08)
(0.00105945 -4.17429e-07 1.9028e-07)
(0.000792426 -1.5219e-07 5.33507e-08)
(0.00079324 -2.78755e-08 6.04909e-08)
(0.00105759 -2.45431e-07 1.78204e-07)
(0.000790944 -1.46543e-07 6.4375e-08)
(0.000791651 -4.30941e-08 7.17304e-08)
(0.00105545 -1.94065e-07 1.87727e-07)
(0.000789286 -2.26771e-07 2.51934e-08)
(0.000790101 -2.86887e-08 1.73316e-07)
(0.0010534 -2.28939e-07 1.78571e-07)
(0.000787616 -2.32554e-07 3.59526e-08)
(0.000788577 7.41404e-07 4.62682e-08)
(0.00105115 -4.2136e-07 1.11497e-07)
(0.000786343 -1.72018e-07 4.76465e-08)
(0.000787021 -5.66378e-07 8.21223e-08)
(0.00104908 -2.58128e-07 1.74411e-07)
(0.000784937 -7.35255e-08 7.80937e-08)
(0.000785621 9.0307e-08 4.6544e-08)
(0.00104743 -2.50943e-07 2.03517e-07)
(0.000783163 1.11391e-07 9.64368e-08)
(0.00078412 5.177e-07 1.07408e-07)
(0.0010453 4.18665e-09 1.37787e-07)
(0.000781688 2.91336e-07 5.9232e-08)
(0.000782531 -1.67379e-08 6.35397e-08)
(0.00104301 2.62086e-07 1.74891e-07)
(0.000780303 5.47033e-07 4.80492e-08)
(0.000781073 5.28731e-07 5.87586e-08)
(0.00104112 5.3316e-07 1.21889e-07)
(0.000779061 6.33618e-07 3.98749e-08)
(0.000779555 7.568e-07 1.35396e-07)
(0.00103949 1.01554e-06 1.33816e-07)
(0.000777162 4.55295e-07 6.09005e-08)
(0.000777961 8.12401e-08 4.08598e-08)
(0.00103743 7.83198e-07 2.54005e-07)
(0.00077568 4.04533e-07 6.89592e-08)
(0.000776526 3.82437e-07 6.70885e-08)
(0.00103508 5.43314e-07 1.6909e-07)
(0.000774206 1.64756e-07 5.09568e-08)
(0.000774977 3.72459e-07 4.81842e-08)
(0.00103305 6.82961e-07 1.73502e-07)
(0.000772693 -1.21608e-07 4.5624e-08)
(0.000773373 -1.37939e-07 7.40855e-08)
(0.00103111 -9.85848e-08 1.74712e-07)
(0.000771248 -5.10876e-08 5.66387e-08)
(0.000771963 -1.10882e-08 4.80035e-08)
(0.0010292 -1.34339e-07 1.70596e-07)
(0.000769906 3.1422e-09 1.25793e-07)
(0.00077053 4.34984e-08 5.69011e-08)
(0.0010273 3.52465e-08 1.80684e-07)
(0.000768351 -1.89353e-08 1.11188e-07)
(0.000769092 -1.15314e-08 1.16305e-07)
(0.00102543 -5.61334e-09 1.67379e-07)
(0.000766962 -7.50123e-08 3.84761e-08)
(0.000767597 2.7276e-08 -1.95037e-08)
(0.00102343 -4.39122e-08 1.64169e-07)
(0.000765446 -2.08351e-07 2.75067e-08)
(0.00076608 1.5681e-07 5.40849e-08)
(0.00102156 -1.64602e-07 1.58952e-07)
(0.000763669 -3.3102e-07 1.22117e-08)
(0.000764514 -2.28983e-07 3.05115e-08)
(0.00101929 -4.24697e-07 1.90067e-07)
(0.000762512 -2.03398e-07 3.17959e-08)
(0.000763227 7.49459e-07 2.3935e-08)
(0.00101727 -5.03672e-07 1.13657e-07)
(0.000760911 1.24554e-07 1.9037e-08)
(0.000761978 1.10518e-07 6.35023e-08)
(0.00101546 -5.60165e-08 1.65616e-07)
(0.000760086 2.44123e-07 8.15436e-08)
(0.000760486 7.31251e-07 5.15329e-08)
(0.001014 3.93903e-07 4.82611e-08)
(0.00075834 8.83246e-08 4.79256e-08)
(0.000758931 2.99458e-07 1.06902e-07)
(0.00101223 3.12625e-07 8.33162e-08)
(0.000756854 -9.55487e-08 -2.66493e-08)
(0.000757517 8.98051e-08 -4.0979e-09)
(0.00101003 2.488e-08 1.72716e-07)
(0.000755793 -1.31115e-07 3.19325e-08)
(0.000756324 1.12412e-07 3.28356e-08)
(0.00100831 -1.87241e-07 1.39975e-07)
(0.000754324 -3.47356e-08 5.34907e-08)
(0.000755105 1.16487e-07 4.02043e-08)
(0.00100658 -1.05082e-07 1.53558e-07)
(0.000753024 1.35501e-07 5.37554e-08)
(0.000753807 1.0445e-06 4.37878e-08)
(0.00100483 8.88453e-09 9.63914e-08)
(0.00075089 2.06067e-07 3.98936e-08)
(0.000752 1.35003e-06 3.9587e-08)
(0.00100245 2.97312e-07 1.65355e-07)
(0.000749736 2.11968e-07 1.00786e-07)
(0.000750307 1.64598e-08 5.68395e-08)
(0.00100022 2.16575e-07 1.59724e-07)
(0.000749023 -1.32098e-06 1.03906e-07)
(0.000998742 3.4371e-07 1.87834e-07)
(-0.0233291 -0.0561181 -0.00340874)
(0.130419 0.0297556 -0.00130327)
(0.0150906 0.0601191 -0.00595873)
(0.0518963 -0.0033076 -0.0185987)
(-0.0113466 -0.0073275 -0.00148442)
(0.011477 -0.00802285 0.00458139)
(-0.00730882 -0.0298182 0.00862312)
(0.0101216 -0.00201973 -0.00437513)
(-0.0354408 -0.021608 0.00121215)
(-0.0369157 -0.0145263 0.000967448)
(0.0107708 -0.00920774 -0.00303595)
(-0.0058407 0.00175822 0.000540801)
(0.0378278 0.017228 0.00112373)
(-0.000266972 0.0488313 0.00474035)
(-0.015488 0.023371 0.00163615)
(0.00687417 0.00921358 -0.00111362)
(0.0163635 0.0127902 0.00150127)
(0.0133125 0.00516097 0.00163683)
(0.00933838 -0.00205893 0.000833711)
(0.0305708 0.0101595 0.0020317)
(0.0464923 0.0259095 0.00148535)
(0.0102619 0.0104654 -0.00224389)
(0.0391435 0.0284832 0.00213832)
(0.000121113 -0.00151257 0.000928532)
(-0.00435424 -0.000595421 -5.98969e-05)
(0.00347845 -0.00773387 1.10082e-05)
(0.0062207 -0.00406117 0.000848235)
(0.000904425 -0.000415916 0.00035261)
(0.000494051 -0.00259663 7.45848e-05)
(0.00320812 -0.0064421 -0.000288635)
(-0.00144069 -0.00675837 -0.000290816)
(0.00275213 -0.0040717 0.00019824)
(-0.000957385 0.00250607 0.00011512)
(0.00056805 0.00241737 -4.07704e-05)
(-0.00315485 0.000337883 0.000127177)
(0.00100543 -0.00266228 8.00948e-05)
(-0.00131364 0.00176188 0.000661419)
(0.000728843 0.000276159 -1.0938e-05)
(0.00107706 0.000824923 -7.07541e-05)
(0.000860144 0.000288843 1.10348e-05)
(0.00083547 0.000822274 1.56414e-05)
(0.000972563 0.000586452 6.74496e-05)
(0.000439876 -3.25779e-05 2.02512e-05)
(0.000470745 -1.383e-05 -1.40417e-06)
(0.000560846 -1.57557e-05 4.90514e-06)
(0.00086093 -8.77508e-06 9.86739e-06)
(0.000430263 -2.69897e-05 2.30664e-05)
(0.000707056 -4.38997e-05 4.90167e-05)