/*--------------------------------*- C++ -*----------------------------------*\
| =========                 |                                                 |
| \\      /  F ield         | OpenFOAM: The Open Source CFD Toolbox           |
|  \\    /   O peration     | Version:  5.0                                   |
|   \\  /    A nd           | Web:      www.OpenFOAM.org                      |
|    \\/     M anipulation  |                                                 |
\*---------------------------------------------------------------------------*/
FoamFile
{
    version     2.0;
    format      ascii;
    class       surfaceVectorField;
    location    "2.6";
    object      Uf_0;
}
// * * * * * * * * * * * * * * * * * * * * * * * * * * * * * * * * * * * * * //

dimensions      [0 1 -1 0 0 0 0];

internalField   nonuniform List<vector> 
27952
(
(0.00448386 0.00609258 0.000382432)
(0.000238726 0.000101476 0.000224664)
(0.00497669 -0.00246584 -0.000288828)
(0.00900915 -0.0069834 0.000710687)
(0.00977925 0.0048788 0.000634169)
(0.0153714 -0.00750262 0.00121335)
(-0.00552686 -0.00235164 0.000384296)
(0.000651475 -0.00315853 -2.01652e-05)
(0.0033997 -0.00249944 -8.43837e-05)
(-0.000406777 0.0030362 0.00150368)
(0.00712105 -0.000660836 0.000634277)
(0.00660817 0.0070295 0.00043153)
(0.00589027 0.000520661 0.000989691)
(0.00409476 0.00272885 0.000174073)
(0.0053429 -0.00226345 0.000185673)
(0.00557176 0.00165697 -0.000561787)
(0.00305136 -0.0115772 -0.000158795)
(-0.00188511 -0.000661708 0.00103702)
(0.00764518 0.015106 0.000530683)
(-0.00669188 -0.00794599 0.000914361)
(0.011408 -0.0086128 -0.00197742)
(0.0124054 -0.00381121 -0.00348076)
(0.00563245 0.0059857 -0.00979101)
(0.00298252 0.00593542 0.000165614)
(0.00941684 -0.00492862 0.0168285)
(0.0179238 -0.00497984 -0.00734682)
(0.00623904 0.011214 -0.000689928)
(-0.00160277 0.00902087 -6.30222e-05)
(-0.000452259 -0.0102113 -0.00096202)
(-0.00824218 0.0051009 0.000130997)
(0.000293208 0.00156158 1.14661e-05)
(-0.00190942 -0.00309056 2.63484e-05)
(-0.00411441 0.00147459 -8.36071e-05)
(-0.0055614 -0.00368226 -0.000114759)
(0.000493813 -2.38722e-05 2.14335e-05)
(0.000507524 -1.99198e-06 -3.37214e-07)
(0.00092967 -3.36269e-05 1.08437e-05)
(0.000486609 -7.34177e-06 2.86337e-05)
(0.000683937 -6.47129e-05 5.3548e-05)
(0.000793347 1.63413e-05 6.79686e-05)
(0.000436626 2.13648e-06 4.76618e-06)
(0.000717567 1.64086e-05 9.53266e-06)
(0.000688486 -3.49545e-06 -1.12666e-06)
(0.000392051 -1.18776e-05 -3.54467e-07)
(0.000840771 9.40656e-06 -1.05219e-06)
(0.000871272 1.86015e-05 -2.15351e-06)
(0.00116188 2.42392e-06 -1.53551e-06)
(0.000619166 9.97039e-06 -4.90093e-06)
(0.000626888 2.33042e-05 -4.47912e-06)
(0.0010265 1.2377e-05 -5.04462e-06)
(0.0010599 3.54384e-05 -4.79453e-06)
(0.000823291 9.49492e-06 -1.36967e-08)
(0.000827239 2.61189e-05 -1.36133e-07)
(0.00109806 1.05253e-05 1.39763e-07)
(0.00081515 6.70834e-06 1.0138e-07)
(0.00081715 1.28188e-05 5.73835e-08)
(0.00109098 7.40039e-06 1.87758e-07)
(0.000808832 4.75498e-06 7.54498e-08)
(0.000810257 8.9672e-06 7.34341e-08)
(0.00108157 5.93699e-06 1.76829e-07)
(0.00080497 3.15823e-06 1.75498e-08)
(0.000805474 5.60834e-06 3.98914e-08)
(0.0010755 3.92373e-06 1.68477e-07)
(0.000802327 2.22702e-06 3.13079e-08)
(0.000802599 3.55191e-06 1.78986e-08)
(0.00107184 2.73443e-06 1.78006e-07)
(0.000799114 1.53251e-06 5.81633e-08)
(0.00079997 1.96578e-06 5.67711e-08)
(0.00106814 2.08792e-06 1.55422e-07)
(0.000797009 9.39845e-07 2.33075e-08)
(0.000797646 1.26668e-06 4.67756e-08)
(0.00106464 1.29693e-06 1.79505e-07)
(0.000794976 5.15508e-07 2.42597e-08)
(0.000795754 1.87405e-06 3.0285e-08)
(0.00106205 7.90013e-07 1.52864e-07)
(0.000793338 2.6884e-07 5.82467e-08)
(0.000794027 4.61682e-07 4.86526e-08)
(0.00105967 3.38313e-07 1.74919e-07)
(0.000791489 1.8263e-07 6.34472e-08)
(0.000792517 7.82652e-08 6.29173e-08)
(0.00105744 2.42647e-07 1.65143e-07)
(0.000789685 -4.82811e-08 8.75129e-08)
(0.000790629 1.81316e-07 1.14223e-07)
(0.0010549 1.56268e-07 1.82712e-07)
(0.000788659 -2.35715e-07 8.74979e-08)
(0.000789002 3.47255e-07 6.86674e-08)
(0.00105302 -3.26207e-07 2.69382e-07)
(0.000787106 -1.53642e-07 6.6316e-08)
(0.000787766 1.01121e-07 6.85791e-08)
(0.00105143 -2.72956e-07 2.11676e-07)
(0.000785459 -1.24703e-07 5.15627e-08)
(0.000786148 1.3366e-07 6.50904e-08)
(0.00104918 -6.39101e-08 1.78127e-07)
(0.000783907 -9.87233e-08 3.79928e-08)
(0.000784665 1.45392e-07 4.70935e-08)
(0.00104705 -1.62711e-07 1.61463e-07)
(0.000782346 1.26908e-07 5.59368e-08)
(0.000783411 -8.27459e-08 1.27195e-07)
(0.00104502 -2.19887e-09 1.79025e-07)
(0.000781353 2.28002e-07 6.38543e-08)
(0.000781933 -9.15534e-07 5.63685e-08)
(0.00104334 4.15626e-07 1.75788e-07)
(0.000779706 1.71156e-07 5.98037e-08)
(0.000780359 3.75189e-07 5.25409e-08)
(0.00104152 3.06181e-07 1.73507e-07)
(0.000778415 1.14193e-07 5.15506e-08)
(0.000778882 -4.93488e-07 4.41912e-08)
(0.00103948 2.66516e-07 1.93952e-07)
(0.000777151 8.94579e-08 3.55792e-08)
(0.00077757 -1.57374e-07 4.48263e-08)
(0.00103804 8.37333e-08 1.74318e-07)
(0.000774512 -6.7799e-08 4.44192e-08)
(0.000775734 1.47769e-06 4.95896e-08)
(0.00103528 1.64255e-07 2.25968e-07)
(0.000773347 -4.80354e-07 -1.03073e-09)
(0.00077383 -3.86633e-07 5.29673e-08)
(0.00103263 -3.76951e-07 2.04486e-07)
(0.000772021 -6.30746e-07 -3.12515e-08)
(0.000772684 2.01792e-06 3.40434e-08)
(0.00103116 -9.52457e-07 -3.78756e-08)
(0.000770209 -4.55617e-07 4.27708e-08)
(0.000771364 1.24964e-06 3.04412e-08)
(0.00102888 -7.62699e-07 8.24248e-08)
(0.000769651 -2.96198e-07 7.37146e-08)
(0.000770046 -5.59037e-07 1.33765e-07)
(0.00102733 -4.74357e-07 1.78539e-07)
(0.000768163 -1.2326e-07 8.45199e-08)
(0.000768936 1.12164e-07 1.36238e-07)
(0.00102613 -2.99827e-07 1.68851e-07)
(0.000766661 4.45609e-08 8.51744e-08)
(0.000767458 2.96136e-08 7.6086e-08)
(0.00102409 2.42787e-08 1.67745e-07)
(0.000765014 2.79801e-09 4.67331e-08)
(0.000765832 -6.65194e-08 5.09173e-08)
(0.00102197 1.64268e-07 1.32374e-07)
(0.000763373 1.64834e-08 3.23424e-08)
(0.000764332 1.65873e-07 3.17247e-08)
(0.00101971 -7.22867e-08 1.69236e-07)
(0.000762047 2.53649e-07 1.06045e-08)
(0.000762887 1.03016e-07 4.4441e-08)
(0.0010176 1.99693e-07 1.59259e-07)
(0.000760546 4.21163e-07 2.60549e-08)
(0.00076144 2.48337e-07 -9.91648e-10)
(0.00101585 5.65811e-07 1.84126e-07)
(0.000759784 3.12365e-07 4.81821e-08)
(0.000760088 -1.01251e-06 5.10907e-08)
(0.00101449 6.13112e-07 1.88355e-07)
(0.000758217 1.50917e-07 4.75615e-08)
(0.000758768 1.90028e-07 4.20376e-08)
(0.00101282 2.26952e-07 1.72838e-07)
(0.00075673 3.44384e-08 7.85963e-08)
(0.000757237 1.86833e-07 5.87925e-08)
(0.00101073 1.75169e-07 1.61862e-07)
(0.000755202 -1.73025e-07 1.64303e-07)
(0.000755794 -2.05324e-07 6.62131e-08)
(0.00100892 -9.64564e-08 1.82289e-07)
(0.000753726 -2.34727e-07 1.39818e-07)
(0.000754456 -2.91423e-07 1.6166e-07)
(0.0010067 -3.58584e-07 1.73635e-07)
(0.000752226 -1.58451e-07 3.9372e-08)
(0.000753075 1.36256e-07 4.73199e-08)
(0.00100469 -2.57335e-07 1.68533e-07)
(0.000751163 -2.22278e-07 4.33416e-08)
(0.000751638 2.50841e-07 5.53849e-08)
(0.0010031 -1.90579e-07 1.10975e-07)
(0.000749793 -4.44112e-07 4.31289e-08)
(0.000750373 -1.68219e-07 5.12407e-08)
(0.00100138 -3.94641e-07 1.68844e-07)
(0.000748321 -5.40305e-07 1.11546e-08)
(0.000749116 -2.76429e-07 4.39762e-08)
(0.0009996 -7.18261e-07 1.59087e-07)
(0.000746727 -3.82302e-07 2.6297e-08)
(0.000747525 8.90805e-07 1.76579e-08)
(0.000997498 -6.53641e-07 9.01767e-08)
(0.000746215 -4.87627e-07 4.64368e-08)
(0.000995258 -3.49909e-07 2.58732e-07)
(-0.00602769 -0.00255062 0.000265407)
(-0.0079732 0.00636004 0.00103226)
(-0.00281924 2.27411e-05 0.000123303)
(0.00927635 -0.0141866 4.96132e-05)
(0.00552954 -0.00748777 0.000231685)
(0.0132334 -0.00776774 -0.00120738)
(-0.00278097 -0.00759061 -0.000195041)
(0.00956727 -0.00856885 -0.000395074)
(0.0106062 -0.0110496 -0.000724924)
(0.0153649 -0.00479389 -0.00136028)
(0.0211806 -0.00154372 -0.000970186)
(-0.00401546 -0.011379 -0.00092071)
(-0.0190902 -0.0103883 0.000358837)
(-0.0140461 -0.0194688 -0.0005785)
(-0.0124028 -0.0039576 -0.000907597)
(-0.0115112 -0.00290054 -0.0019638)
(-0.0202057 0.0276881 -0.000256917)
(-0.00999216 0.0186733 -0.000595858)
(-0.0332043 -0.00216154 -0.00131515)
(-0.043377 -0.00698539 -0.00275581)
(0.0153246 -0.0146112 -0.00664371)
(0.0136613 -0.0150089 -0.00265547)
(0.0129602 -0.0125067 -0.00760323)
(-0.00330497 0.00356835 -0.00620868)
(-0.00330497 0.00356835 -0.00620868)
(0.00448386 0.00609258 0.000382432)
(0.00448386 0.00609258 0.000382432)
(0.000516425 -0.00718185 0.00046514)
(0.00639171 -0.00683719 6.15169e-05)
(-0.0037397 0.00211013 -0.00102393)
(-0.00547021 -0.00713442 -0.0013466)
(-0.00219479 0.00552955 -0.000383017)
(-0.000110239 0.00568366 3.60875e-05)
(-0.000449952 -0.000307732 0.000341149)
(-0.00033624 0.00195285 0.000113332)
(-0.00176803 -0.00323594 0.000100148)
(-0.00279528 0.00476726 0.000591015)
(0.000650124 -3.66981e-05 2.96345e-05)
(0.000395296 3.29495e-05 9.73141e-06)
(0.00044043 4.46941e-05 2.06089e-05)
(0.000626617 7.27722e-05 2.95541e-05)
(0.000290371 3.96648e-05 5.87381e-06)
(0.000843238 3.78872e-05 -1.23811e-06)
(0.000577672 4.32047e-05 -8.79326e-07)
(0.00115439 2.79129e-05 -1.52692e-06)
(0.000617293 2.92968e-05 -4.35229e-06)
(0.000611046 2.62795e-05 -4.39352e-06)
(0.00105722 3.614e-05 -4.60297e-06)
(0.00105069 2.71535e-05 -3.96922e-06)
(0.000546104 1.16357e-05 -4.15817e-06)
(0.000972433 5.74867e-05 -2.76569e-07)
(0.000896698 9.61919e-06 -5.13521e-06)
(0.000819324 3.15347e-05 -6.51166e-08)
(0.000837723 5.53606e-05 -7.75475e-07)
(0.00110386 5.41578e-05 9.03427e-08)
(0.000811559 1.45287e-05 2.9432e-08)
(0.000795976 2.08571e-05 -2.47034e-07)
(0.00108639 1.8982e-05 1.59028e-07)
(0.00080601 9.32429e-06 3.78865e-08)
(0.000803755 1.40287e-05 1.28558e-07)
(0.00107883 1.33017e-05 1.73066e-07)
(0.000802758 5.53187e-06 4.02473e-08)
(0.000800735 7.78176e-06 3.99243e-08)
(0.00107296 7.63853e-06 1.74146e-07)
(0.0008003 3.26397e-06 4.33492e-08)
(0.000799765 4.78599e-06 5.23784e-08)
(0.00106942 4.71572e-06 1.70773e-07)
(0.000798196 1.86093e-06 4.53867e-08)
(0.000798218 2.68585e-06 4.80799e-08)
(0.00106642 2.52308e-06 1.75967e-07)
(0.000796381 1.07669e-06 5.37584e-08)
(0.000796667 1.62535e-06 5.00431e-08)
(0.00106392 1.54353e-06 1.76305e-07)
(0.000794716 6.78742e-07 5.46719e-08)
(0.000795257 1.65161e-06 5.99773e-08)
(0.00106156 7.73358e-07 2.03625e-07)
(0.000793122 5.24197e-07 5.33186e-08)
(0.000793835 5.78369e-07 3.46961e-08)
(0.00105941 6.8406e-07 1.74479e-07)
(0.000791937 3.15408e-07 1.13677e-07)
(0.000792256 -2.3012e-07 4.93365e-08)
(0.00105761 4.53356e-07 1.68501e-07)
(0.000789549 2.40099e-07 9.53921e-08)
(0.000790535 -1.24935e-06 9.5999e-08)
(0.00105515 2.17712e-07 3.50333e-07)
(0.000788263 2.52216e-07 4.97485e-08)
(0.000789017 9.01119e-08 3.31419e-08)
(0.00105272 3.27064e-07 1.74011e-07)
(0.000786841 1.99756e-07 6.73547e-08)
(0.0007877 3.16925e-07 6.15326e-08)
(0.00105099 2.91467e-07 1.52997e-07)
(0.000785237 3.45415e-07 6.0627e-08)
(0.000786328 1.76545e-07 5.03285e-08)
(0.00104892 2.22422e-07 1.81085e-07)
(0.000784217 5.01484e-07 1.3627e-07)
(0.000784858 -1.7909e-06 2.93294e-08)
(0.00104707 6.98953e-07 2.68097e-07)
(0.00078305 4.81512e-07 1.27649e-07)
(0.000783384 -3.20248e-07 1.32162e-07)
(0.00104577 6.57781e-07 1.62672e-07)
(0.00078085 3.06868e-07 4.50563e-08)
(0.000781713 3.28647e-08 4.96231e-08)
(0.00104351 6.44219e-07 1.70123e-07)
(0.000779604 5.16246e-08 3.69311e-08)
(0.000780039 1.59096e-07 3.55774e-08)
(0.00104107 1.92058e-07 1.6834e-07)
(0.000777953 -1.38572e-07 3.74668e-08)
(0.000778644 6.83145e-08 4.18118e-08)
(0.00103914 -1.66298e-08 1.49238e-07)
(0.000776456 -5.69972e-07 5.88351e-08)
(0.000777033 -1.48357e-07 5.15987e-08)
(0.00103712 -3.19666e-07 1.74812e-07)
(0.000774798 -6.93276e-07 5.81366e-08)
(0.000775582 1.40335e-06 1.2225e-08)
(0.00103499 -1.19144e-06 1.94953e-07)
(0.000773036 -4.5957e-07 8.80474e-08)
(0.000774124 -8.35072e-08 2.88442e-08)
(0.00103259 -6.60828e-07 1.77548e-07)
(0.000772195 -3.36082e-07 9.57372e-08)
(0.00077284 -2.4122e-08 1.04507e-07)
(0.001031 -5.64783e-07 2.62261e-07)
(0.000771073 8.80612e-08 1.21403e-07)
(0.000771894 -5.04553e-08 6.30252e-08)
(0.00102973 -3.26044e-07 2.34853e-07)
(0.000769386 4.16779e-07 1.96288e-07)
(0.000770456 4.55674e-07 2.3386e-07)
(0.00102777 5.87229e-07 1.20761e-07)
(0.000768318 2.78644e-07 1.27823e-07)
(0.000768761 7.31661e-07 1.62859e-07)
(0.00102604 5.76748e-07 9.40064e-08)
(0.00076657 1.08253e-07 4.18367e-08)
(0.000767244 4.13825e-07 6.70937e-08)
(0.00102414 2.01892e-07 1.71209e-07)
(0.000765137 7.20879e-08 3.59148e-08)
(0.000765786 -1.67433e-08 4.33287e-08)
(0.0010219 9.96157e-08 1.67076e-07)
(0.000763853 1.20443e-07 4.38193e-08)
(0.000764392 1.87788e-07 1.28163e-07)
(0.00102012 1.13648e-07 1.55883e-07)
(0.000762306 2.54017e-07 3.2859e-08)
(0.000763053 1.34962e-07 6.00755e-08)
(0.00101835 2.57244e-07 1.78801e-07)
(0.000760889 3.81257e-07 2.4028e-08)
(0.000761598 3.89974e-07 3.0004e-08)
(0.00101627 5.16269e-07 1.59284e-07)
(0.000759105 3.02032e-07 4.49489e-08)
(0.000759987 -4.25906e-07 2.79108e-08)
(0.00101403 5.81868e-07 1.60467e-07)
(0.000757913 2.57339e-08 5.32634e-08)
(0.000758422 2.10895e-08 6.15224e-08)
(0.00101213 2.33552e-07 1.61731e-07)
(0.000756173 -2.91143e-07 4.64069e-08)
(0.000756841 9.58098e-07 6.24946e-08)
(0.00101015 -1.67331e-07 1.4322e-07)
(0.000755026 -4.0279e-07 6.35408e-08)
(0.000755657 -3.25011e-07 1.1458e-07)
(0.00100819 -5.91009e-07 1.54308e-07)
(0.000753853 -2.06998e-07 6.91976e-08)
(0.000754702 -2.28284e-07 7.85686e-08)
(0.0010068 -5.0915e-07 1.43533e-07)
(0.000752522 -4.44091e-09 6.33303e-08)
(0.00075333 2.9433e-09 6.53504e-08)
(0.00100511 -1.05382e-07 1.72275e-07)
(0.000750657 1.38597e-07 6.32854e-08)
(0.000751817 1.35065e-07 9.07403e-08)
(0.00100291 2.2576e-08 2.19682e-07)
(0.000749894 9.96094e-08 5.20903e-08)
(0.000750325 -1.27131e-06 4.25642e-08)
(0.00100121 2.7174e-07 1.91546e-07)
(0.000748301 -1.071e-07 5.04876e-08)
(0.000748858 -1.40212e-07 5.42359e-08)
(0.000999612 -3.73473e-08 1.77024e-07)
(0.000746881 -2.02661e-07 3.7789e-08)
(0.000747409 2.64443e-08 5.47721e-08)
(0.000997476 -2.54277e-07 2.34646e-07)
(0.000746467 2.06681e-07 5.5963e-08)
(0.000996192 -2.9489e-07 7.75557e-08)
(-0.0183812 -0.0052162 0.000234782)
(-0.00505395 -0.0143282 0.000344954)
(-0.0211503 -0.00920033 0.00225555)
(-0.0127041 -0.00403761 0.00142219)
(0.000464753 -0.0115659 -0.00204256)
(-0.0200452 0.0114081 -0.00224034)
(0.00709074 0.0271 -0.00146007)
(0.0102337 0.00813573 -0.00433993)
(0.000998106 0.00684397 -0.00196783)
(-0.0140625 -0.00506685 -6.85921e-05)
(-0.00491274 -0.00459825 0.000264514)
(-0.00920876 0.00546572 -8.17438e-05)
(0.00262426 -0.000778709 -0.00246922)
(0.00405777 0.0056159 0.000779088)
(-0.00568065 0.00773433 -3.22421e-05)
(0.0300283 0.010834 0.00151855)
(-0.0195545 -0.0178444 0.00247919)
(-0.0253261 -0.0039229 -0.00272942)
(-0.0467801 -0.0128985 0.00794777)
(0.00733561 0.00238997 0.00094552)
(-0.0075695 0.0346231 0.00117621)
(0.0035538 0.014199 0.00135581)
(-0.00892663 0.00786757 0.000394769)
(-0.0374061 0.0820223 -0.00116432)
(0.0193004 0.0380395 -0.00500702)
(-0.00489592 0.0549296 -0.00171567)
(-0.0310422 0.0831923 -0.00555584)
(0.0153453 0.053974 0.000140445)
(0.00387859 -0.00443675 -0.00314297)
(0.0134 0.000739429 -0.00200733)
(0.00837587 0.00981453 -0.00176583)
(0.020831 -0.00262339 -0.00185536)
(0.0114139 0.0161344 -0.00140389)
(0.0327252 -0.0143151 -0.0100802)
(0.0155305 0.0322839 -0.00170173)
(0.00547442 -0.00278598 -0.180048)
(0.0145452 -0.00518027 0.0656328)
(0.0145921 -0.00030807 0.10995)
(-0.00311923 0.00175803 0.00288798)
(-0.000690155 -0.00148419 5.69607e-05)
(-0.000592106 -0.0018572 0.000203561)
(-0.000970517 -0.000639581 -2.80016e-05)
(0.000959282 5.80062e-06 -6.51275e-05)
(-0.00123829 -0.00216718 -6.85192e-05)
(0.000732001 0.000298014 6.35211e-05)
(0.000672884 -0.000140983 2.40578e-05)
(0.00106446 0.000162021 -1.099e-05)
(0.000906336 0.000164311 -3.84701e-05)
(0.000945835 -3.64321e-05 1.12804e-05)
(0.000294766 1.04882e-05 -1.81122e-06)
(0.00044073 1.89577e-05 -2.73417e-06)
(0.000432487 8.89631e-06 4.40755e-07)
(0.000730061 3.46294e-05 -7.36631e-10)
(0.000297236 6.19626e-06 -2.0267e-06)
(0.000525243 6.68848e-06 -3.05068e-06)
(0.000534662 -4.07829e-06 -2.7756e-06)
(0.000786424 2.98006e-05 -9.57565e-07)
(0.000850484 2.44237e-05 -1.23853e-06)
(0.00113562 5.24558e-05 -6.84606e-07)
(0.000563965 2.2066e-05 -3.85052e-06)
(0.000574841 2.30787e-05 -4.89544e-06)
(0.000922277 2.108e-05 -4.82778e-06)
(0.000950412 2.67808e-05 -6.23283e-06)
(0.000794655 1.38557e-05 -1.48031e-07)
(0.00077598 1.04438e-05 -5.18647e-07)
(0.00104019 1.84169e-05 5.1221e-08)
(0.000797378 9.0565e-06 1.30625e-07)
(0.000797746 8.13068e-06 2.02985e-07)
(0.00106742 1.32836e-05 2.15657e-07)
(0.000798089 5.32816e-06 5.20513e-08)
(0.000796068 4.96931e-06 2.51326e-08)
(0.00106479 7.59835e-06 1.76257e-07)
(0.000797714 3.20423e-06 5.71105e-08)
(0.000797108 3.20108e-06 5.8858e-08)
(0.00106546 4.57785e-06 1.85483e-07)
(0.000796718 1.91535e-06 5.27357e-08)
(0.000796605 2.00016e-06 5.02136e-08)
(0.00106418 2.7048e-06 1.77485e-07)
(0.000795449 1.11714e-06 5.62588e-08)
(0.000795669 1.27912e-06 4.98389e-08)
(0.00106246 1.61475e-06 1.77892e-07)
(0.000794487 5.69072e-07 4.00097e-08)
(0.000794572 8.11236e-07 5.32895e-08)
(0.00106098 8.55286e-07 1.85844e-07)
(0.000792987 2.01669e-07 3.07093e-08)
(0.000793376 7.6992e-07 5.67551e-08)
(0.00105927 3.39482e-07 1.61272e-07)
(0.000790917 -1.69626e-07 3.16439e-08)
(0.000791793 4.34983e-07 3.84621e-08)
(0.00105686 -1.04777e-08 1.77707e-07)
(0.000789819 -2.8669e-07 3.3769e-08)
(0.000790391 8.71364e-07 3.06903e-08)
(0.00105475 -5.59867e-07 -6.7213e-09)
(0.000788513 -1.19829e-07 4.49168e-08)
(0.000789227 -1.87583e-07 3.76838e-08)
(0.00105311 -2.53217e-07 1.77155e-07)
(0.000787157 -1.16214e-08 4.451e-08)
(0.000787836 -4.16579e-07 5.50642e-08)
(0.0010513 -1.07684e-07 2.13249e-07)
(0.000786021 1.3163e-07 1.90377e-08)
(0.000786507 -2.52361e-07 4.58296e-08)
(0.00104968 3.68001e-08 1.73217e-07)
(0.000783972 1.72954e-07 2.51892e-08)
(0.000784909 1.61412e-07 9.63013e-09)
(0.00104759 2.74101e-07 8.68328e-08)
(0.000782217 -3.80255e-08 5.41629e-08)
(0.00078312 9.99746e-08 6.56457e-08)
(0.00104495 1.64019e-07 1.68036e-07)
(0.000780662 -7.77781e-08 4.01486e-08)
(0.000781663 -5.67402e-07 4.09977e-08)
(0.00104275 -2.79317e-07 2.22031e-07)
(0.000779165 -3.66264e-08 4.04562e-08)
(0.000780091 3.61822e-07 5.83813e-08)
(0.00104069 4.84509e-08 1.60938e-07)
(0.000777813 -1.01449e-07 5.59406e-08)
(0.000778564 1.2913e-10 5.6416e-08)
(0.00103884 -1.43442e-07 1.67262e-07)
(0.000776001 -8.55635e-08 5.00097e-09)
(0.000777053 -1.52484e-07 6.93193e-08)
(0.00103658 -8.66245e-08 2.0331e-07)
(0.00077508 1.54698e-07 -1.70727e-08)
(0.000775882 -6.87801e-07 -1.44401e-08)
(0.00103486 -9.85306e-08 2.72226e-07)
(0.000773641 5.62106e-07 4.52805e-08)
(0.000774632 -1.01602e-06 2.17986e-08)
(0.00103342 5.5659e-07 2.36282e-07)
(0.000772645 7.19635e-07 7.18085e-08)
(0.000773034 -9.31035e-07 4.67591e-08)
(0.00103158 9.74921e-07 1.95718e-07)
(0.000771436 5.36763e-07 1.75429e-07)
(0.000771663 -1.9634e-06 2.42911e-08)
(0.00103032 9.42018e-07 2.86e-07)
(0.000769759 3.71255e-07 2.00453e-07)
(0.000770247 4.19061e-07 1.63395e-07)
(0.00102846 4.9134e-07 1.94605e-07)
(0.000767676 2.45151e-07 1.02159e-07)
(0.000768603 1.0697e-07 8.15062e-08)
(0.00102564 5.02883e-07 2.72674e-07)
(0.000766441 1.26764e-07 6.8593e-08)
(0.000767095 1.37487e-07 6.62189e-08)
(0.00102349 1.36531e-07 1.72569e-07)
(0.000765024 1.41372e-07 1.3555e-07)
(0.000765804 -8.59149e-08 4.54218e-08)
(0.00102186 1.70841e-07 1.74126e-07)
(0.000763599 1.06337e-07 1.4444e-07)
(0.000764348 8.47226e-08 1.40733e-07)
(0.0010199 1.76577e-07 1.77459e-07)
(0.000762317 8.20691e-08 5.72298e-08)
(0.000763022 -3.04743e-08 8.28178e-08)
(0.0010181 9.15301e-08 1.69164e-07)
(0.00076078 3.23394e-08 3.38874e-08)
(0.000761536 6.1503e-07 1.84284e-08)
(0.00101625 8.60399e-08 1.64157e-07)
(0.000759287 -5.44215e-08 4.44739e-08)
(0.000759879 -8.98325e-08 -3.68358e-08)
(0.00101413 -4.94272e-08 1.52246e-07)
(0.000757399 -4.29154e-08 7.07533e-08)
(0.000758436 4.72526e-07 5.92165e-08)
(0.00101188 -1.12934e-07 1.79679e-07)
(0.000756027 2.34984e-07 1.30652e-07)
(0.000757188 5.06222e-07 7.28291e-08)
(0.0010097 4.13308e-09 1.98413e-07)
(0.000755511 4.51336e-07 1.29619e-07)
(0.000755925 1.36468e-06 1.5924e-07)
(0.0010085 6.22176e-07 -3.36153e-08)
(0.000754221 3.79332e-07 7.47254e-08)
(0.000754611 -2.18844e-07 6.18854e-08)
(0.00100732 5.91636e-07 1.57981e-07)
(0.000752689 3.04661e-07 9.27526e-08)
(0.000753235 1.38753e-07 5.52611e-08)
(0.00100536 4.68289e-07 1.70951e-07)
(0.000751368 4.41148e-07 7.00339e-08)
(0.000751986 1.72043e-08 1.25202e-07)
(0.00100357 3.96934e-07 1.7049e-07)
(0.000749318 4.41357e-07 4.47064e-08)
(0.000750323 -8.16971e-08 5.78003e-08)
(0.00100131 7.69719e-07 1.41652e-07)
(0.000747959 2.46008e-07 5.85204e-08)
(0.000748612 -4.12741e-08 4.49779e-08)
(0.000998943 3.83776e-07 1.58379e-07)
(0.000746788 1.54646e-07 7.29458e-08)
(0.000747293 -2.92863e-07 5.0856e-08)
(0.000997184 2.71344e-07 1.71922e-07)
(0.000746274 1.39965e-07 6.67995e-08)
(0.000995941 1.297e-07 1.54939e-07)
(-0.00143458 -0.00104257 -1.95821e-05)
(-0.003238 0.004812 -1.36284e-05)
(-0.00775589 0.00341555 0.000110183)
(-0.00852998 0.00191686 0.000493136)
(-0.00852998 0.00191686 0.000493136)
(-0.00852998 0.00191686 0.000493136)
(-0.00852998 0.00191686 0.000493136)
(0.00860992 -0.0111723 -0.000487359)
(0.00372281 0.01314 0.0102203)
(0.00551563 -0.00431322 -0.00287951)
(0.011838 -0.00258045 -0.0006742)
(-0.0107904 -0.00372735 -0.000947537)
(0.00783136 0.00576019 -0.000720913)
(0.000585927 -0.0155177 0.00106938)
(0.000826736 -0.0105047 0.00397533)
(0.000846079 -0.00542687 -0.000368608)
(-0.0032916 -0.000792279 -0.000816273)
(-0.00414456 -0.0115481 -0.00057483)
(-0.00118517 -0.0108006 0.000311622)
(-0.00964676 -0.00683211 0.000189925)
(0.00167253 -0.00105511 -5.76448e-05)
(0.00286886 -0.00190353 0.000152868)
(0.00892909 0.00443457 -0.00598967)
(0.00298911 0.00403719 0.000474101)
(0.00708082 -0.0068346 0.000116391)
(0.00179146 0.0042475 0.000183255)
(0.0124914 0.000447723 -0.000301535)
(0.0020818 0.00729196 0.000394384)
(0.00886343 0.00310103 0.000137335)
(0.000414625 0.00799667 0.000185047)
(-0.000393892 0.00106457 -0.000133058)
(0.0111421 -0.00173113 0.000794487)
(0.00534526 0.0013679 -5.76124e-05)
(0.0124892 0.00107851 0.00687092)
(0.0124461 0.00861885 0.0058016)
(0.00302299 -0.00294521 -0.00530043)
(0.0122543 0.00437071 0.00104543)
(0.000742744 -0.00147024 -9.56745e-05)
(-0.000590695 0.00766495 0.00361701)
(-0.00603921 -0.00410218 0.000489899)
(-0.00165576 -0.005477 0.000419644)
(-0.000613911 -0.00142172 -0.000256203)
(-0.00111599 0.0010249 0.000162382)
(0.000273037 -0.00816899 -0.000245104)
(0.00038723 1.79648e-05 1.58838e-05)
(0.000854767 -0.000707994 -4.22021e-05)
(-0.00011668 -0.00101857 2.27793e-05)
(0.00154427 -0.000966321 -4.21175e-05)
(0.00131404 -0.00144187 0.000148096)
(0.000545094 0.000282527 1.55411e-05)
(0.0012517 0.000451957 8.65043e-05)
(0.00104457 0.000499143 4.2705e-05)
(0.00161923 0.000458374 -5.51132e-05)
(0.00116146 0.000300134 3.44295e-05)
(0.000320391 -6.81137e-06 7.91642e-08)
(0.000452709 4.37859e-06 -3.42309e-06)
(0.000429529 1.93636e-05 1.81005e-07)
(0.000705905 9.20412e-06 -6.9406e-08)
(0.000323773 -6.16446e-06 4.60477e-06)
(0.000609668 -2.32008e-05 5.79106e-06)
(0.000615361 -1.98081e-05 1.45604e-05)
(0.000424102 -1.83021e-07 -2.47198e-07)
(0.000786094 9.87471e-06 -7.99847e-07)
(0.000859322 9.1526e-06 -6.82876e-07)
(0.00114526 1.63903e-05 -8.2273e-07)
(0.000581325 5.34224e-06 -3.70351e-06)
(0.000570117 1.0767e-06 -4.9119e-06)
(0.000963906 2.32018e-06 -4.65241e-06)
(0.000938392 -4.65681e-06 -6.09129e-06)
(0.000792405 5.76538e-06 -1.67867e-07)
(0.000770889 2.98347e-06 -6.97257e-07)
(0.00103728 7.2837e-06 1.25497e-08)
(0.000794918 4.28848e-06 9.75505e-08)
(0.000795889 2.62962e-06 2.2061e-07)
(0.0010653 6.1632e-06 2.06422e-07)
(0.000795922 2.70362e-06 3.19284e-08)
(0.000794079 1.83632e-06 -2.95882e-09)
(0.00106207 3.98514e-06 1.73014e-07)
(0.000796193 1.69557e-06 5.19639e-08)
(0.000795842 8.97645e-07 1.21796e-07)
(0.00106331 2.39688e-06 1.79378e-07)
(0.000795748 1.1955e-06 4.73169e-08)
(0.000795977 6.36727e-07 4.95277e-08)
(0.00106272 1.5937e-06 1.7686e-07)
(0.0007948 9.05301e-07 4.68685e-08)
(0.000795303 5.61443e-07 4.05385e-08)
(0.00106161 1.24081e-06 1.76008e-07)
(0.000793541 5.22168e-07 7.00338e-08)
(0.000794092 4.7961e-07 3.88429e-08)
(0.00105997 9.35999e-07 1.76381e-07)
(0.000792406 1.42455e-07 6.45137e-08)
(0.000792901 9.60414e-08 7.05474e-08)
(0.00105833 3.09004e-07 1.89469e-07)
(0.00079096 -1.23175e-08 3.75111e-08)
(0.0007916 3.24893e-07 4.29756e-08)
(0.00105649 1.66022e-08 1.77486e-07)
(0.00078992 -1.97674e-07 3.46029e-08)
(0.000790159 2.99819e-07 1.13485e-07)
(0.00105485 -7.26209e-08 1.74385e-07)
(0.000788588 -2.86548e-07 4.78256e-08)
(0.000789117 -4.39466e-07 5.31177e-08)
(0.00105329 -4.59887e-07 1.77666e-07)
(0.000787121 -2.6081e-07 5.63868e-08)
(0.000787869 -1.95312e-07 6.57786e-08)
(0.00105135 -2.94597e-07 1.56644e-07)
(0.000785603 -3.99431e-07 3.64337e-08)
(0.000786336 -2.28031e-07 2.19128e-08)
(0.0010494 -4.08496e-07 1.74844e-07)
(0.000783923 -4.20942e-07 5.00687e-08)
(0.000784884 -3.10989e-07 1.64802e-07)
(0.00104723 -6.4637e-07 2.23697e-07)
(0.000782551 -2.85332e-07 5.24883e-08)
(0.000783291 -1.35743e-07 6.87853e-08)
(0.00104508 -4.65956e-07 1.80312e-07)
(0.000781163 -1.83763e-07 5.92249e-08)
(0.000781791 -1.04334e-08 4.73024e-08)
(0.00104337 -3.10384e-07 1.26557e-07)
(0.000779354 -7.25711e-10 7.43418e-08)
(0.00078032 -4.10188e-07 5.64397e-08)
(0.00104125 -1.9534e-07 2.56615e-07)
(0.000777946 2.01417e-07 6.97907e-08)
(0.000778815 -1.43043e-07 6.31393e-08)
(0.00103897 1.99057e-07 1.7742e-07)
(0.000776674 5.22503e-07 4.99047e-08)
(0.000777452 -5.79017e-07 5.19802e-08)
(0.00103718 3.85107e-07 1.85624e-07)
(0.000775721 6.7214e-07 2.44198e-08)
(0.000776066 -2.50465e-06 6.44075e-09)
(0.0010358 1.09512e-06 2.55732e-07)
(0.000773851 6.32867e-07 2.32694e-08)
(0.000774579 3.49703e-07 4.81798e-08)
(0.00103393 7.75369e-07 1.12113e-07)
(0.000772178 7.00425e-07 -7.51291e-10)
(0.000773115 -4.0565e-07 3.31797e-08)
(0.00103148 9.59928e-07 1.54169e-07)
(0.000770358 4.51564e-07 1.22133e-08)
(0.000771349 -6.68119e-07 1.06001e-08)
(0.00102912 9.58642e-07 1.12777e-07)
(0.000769242 8.44658e-08 4.44731e-08)
(0.000769787 -5.84954e-08 5.80395e-08)
(0.00102722 2.86639e-07 1.76015e-07)
(0.000767847 4.38365e-08 4.55706e-08)
(0.000768551 7.56066e-08 4.60178e-08)
(0.00102559 -4.84129e-08 1.69357e-07)
(0.00076655 9.56471e-08 4.30542e-08)
(0.000767159 3.48252e-07 6.00509e-08)
(0.00102372 1.71019e-07 1.43404e-07)
(0.00076509 5.87655e-08 5.05744e-08)
(0.000765758 -7.41373e-08 4.19735e-08)
(0.00102195 7.6483e-08 1.7218e-07)
(0.000763714 1.47752e-08 7.91282e-08)
(0.000764293 -1.02978e-07 3.8708e-08)
(0.00102002 5.10336e-08 1.79079e-07)
(0.000762367 -2.05512e-07 4.40363e-08)
(0.000762748 -2.38297e-07 7.94277e-08)
(0.00101824 -5.75717e-08 1.78081e-07)
(0.000760588 -3.23058e-07 -5.22777e-08)
(0.00076139 2.41178e-06 5.27454e-08)
(0.0010161 -5.2939e-07 7.29695e-08)
(0.000759007 -1.71897e-07 -2.21228e-08)
(0.000760069 -5.25161e-07 -1.32485e-08)
(0.00101378 -3.81683e-07 2.1572e-07)
(0.000758164 6.48012e-08 6.12881e-08)
(0.000758733 -3.19553e-09 4.63116e-08)
(0.00101219 -1.09277e-07 1.52267e-07)
(0.000757151 3.8457e-07 1.01391e-07)
(0.000757587 -2.11986e-07 2.05491e-07)
(0.00101107 2.97334e-07 1.8531e-07)
(0.000754974 4.51632e-07 9.15366e-08)
(0.000756008 -1.40901e-07 5.96944e-08)
(0.00100892 7.14526e-07 3.47736e-07)
(0.000753652 2.07089e-07 4.24231e-08)
(0.000754304 -4.83191e-07 -4.17436e-08)
(0.0010066 4.40446e-07 1.80737e-07)
(0.000752456 2.73571e-08 8.7689e-08)
(0.00075301 -7.00832e-09 5.44065e-08)
(0.00100486 9.30528e-08 1.60858e-07)
(0.000751305 -9.48957e-08 1.12989e-07)
(0.000751833 -1.48378e-07 9.37173e-08)
(0.00100328 -1.20933e-08 1.58446e-07)
(0.00074918 -8.18623e-08 5.80757e-08)
(0.000750339 -6.53134e-07 2.01624e-08)
(0.00100119 -2.20233e-07 2.76908e-07)
(0.000748141 1.01351e-07 3.73117e-08)
(0.000748841 -3.81225e-07 1.12737e-08)
(0.000998986 2.49941e-08 1.61119e-07)
(0.000746538 2.01933e-07 4.47049e-08)
(0.000747416 -5.8609e-08 2.29923e-08)
(0.000997153 2.42598e-07 1.71026e-07)
(0.000746023 3.27954e-07 6.8675e-08)
(0.000995691 2.92874e-07 1.20955e-07)
(0.0183026 -0.0312754 -0.00602494)
(0.0792708 -0.0111187 -0.00238521)
(-0.0133123 0.0373359 -0.00144935)
(0.0319536 0.0142676 -0.0111613)
(-0.0162753 0.0140495 0.00154095)
(0.00485099 -0.00171984 0.00470336)
(-0.0118048 0.0141865 0.0139529)
(-0.0130715 -0.0003218 -0.0132904)
(-0.00371001 -0.0247124 0.00611414)
(-0.00710825 -0.0174177 0.0106786)
(-0.0389831 -0.00942344 -0.00799269)
(-3.70315e-05 0.00364299 0.00121463)
(0.0238432 0.0192196 0.00185138)
(-0.00270492 0.0265527 0.00323138)
(-0.0125839 0.0178368 0.00248162)
(0.0455064 0.0157393 -0.00712143)
(0.0169557 0.017551 0.000459336)
(0.013899 0.0050417 0.00192066)
(0.0127141 -0.00406028 0.00129907)
(0.0346072 0.0116322 0.00369941)
(0.0340185 0.042351 0.0052354)
(0.0289186 0.0165427 -0.0137483)
(0.0547599 0.0617083 0.0095223)
(-0.00123034 -0.00219108 0.00073741)
(-0.003938 -0.00167201 -0.00013309)
(0.00330374 -0.00824897 -7.20991e-05)
(0.00521635 -0.00482881 0.000653333)
(0.000653051 -0.000501737 0.00034582)
(0.00021323 -0.00331331 4.21431e-05)
(0.00236407 -0.00827568 -0.000244478)
(-0.00373556 -0.00714724 -0.000243857)
(0.00300418 -0.00515814 0.000265963)
(-0.00163672 0.00192849 0.000104278)
(0.000356966 0.00199584 -2.99438e-05)
(-0.00307113 0.000127984 0.000117842)
(0.000659121 -0.00280559 7.63985e-05)
(-0.00287185 0.00165468 0.000607291)
(0.000687756 0.000269351 -9.672e-06)
(0.00102631 0.000834996 -7.40602e-05)
(0.000836887 0.000283655 1.13679e-05)
(0.000804158 0.000819308 1.67298e-05)
(0.00093079 0.000601539 6.9495e-05)
(0.000397098 -3.00186e-05 2.07166e-05)
(0.000443568 -3.06747e-06 -1.8747e-06)
(0.000503065 -7.15173e-06 4.15953e-06)
(0.00078352 9.63868e-06 8.49692e-06)
(0.000387248 -2.39623e-05 2.38999e-05)
(0.000656179 -4.4906e-05 4.92404e-05)