/*--------------------------------*- C++ -*----------------------------------*\
| =========                 |                                                 |
| \\      /  F ield         | OpenFOAM: The Open Source CFD Toolbox           |
|  \\    /   O peration     | Version:  5.0                                   |
|   \\  /    A nd           | Web:      www.OpenFOAM.org                      |
|    \\/     M anipulation  |                                                 |
\*---------------------------------------------------------------------------*/
FoamFile
{
    version     2.0;
    format      ascii;
    class       surfaceScalarField;
    location    "5";
    object      alphaPhi10;
}
// * * * * * * * * * * * * * * * * * * * * * * * * * * * * * * * * * * * * * //

dimensions      [0 3 -1 0 0 0 0];

internalField   nonuniform List<scalar> 
28933
(
-3.05696e-08
9.6061e-09
-1.41128e-08
-3.43358e-08
5.2068e-08
-1.71883e-07
-3.23234e-08
-3.70456e-08
-3.44562e-08
-1.8015e-07
-1.57729e-07
-1.68344e-07
-3.30365e-08
-4.38724e-08
-2.13569e-08
-2.09869e-08
-2.18678e-08
-2.33999e-08
2.65375e-08
-2.20243e-08
-4.52145e-08
-2.6462e-08
1.93257e-08
-6.08302e-09
-3.5453e-08
5.39007e-08
-1.40695e-09
-5.34146e-09
-3.32274e-09
1.38288e-08
-1.521e-10
6.27204e-08
6.26023e-08
6.3475e-08
1.69933e-16
-9.93016e-09
-9.93016e-09
-9.93016e-09
1.69348e-16
1.74984e-16
1.66723e-16
-1.83059e-24
2.28366e-22
1.12906e-22
1.79655e-21
-5.54493e-22
-2.4776e-21
1.01029e-22
8.49938e-27
9.18141e-26
-9.3797e-27
-1.5129e-28
-2.44636e-27
-5.23443e-30
6.8875e-29
-4.30855e-29
1.20733e-30
1.21288e-31
-9.15666e-32
1.18469e-32
7.7168e-36
-1.69314e-35
-2.83557e-35
1.34944e-39
-3.31784e-39
7.30881e-38
5.39723e-43
-1.62068e-42
7.63919e-41
2.29495e-46
-3.51245e-46
3.14359e-44
9.82517e-50
-5.68492e-50
7.17368e-48
4.19086e-53
-1.06401e-53
3.78468e-50
1.78826e-56
-6.82284e-57
7.72844e-54
7.72827e-60
-3.28167e-60
3.09627e-56
3.31626e-63
-8.62163e-65
6.95405e-60
1.40148e-66
1.01508e-68
-2.67459e-63
5.91978e-70
-2.53768e-71
-5.55594e-67
2.74953e-73
6.06082e-75
-5.38092e-70
1.36615e-76
-1.87926e-77
2.26642e-73
5.35747e-80
-4.83335e-81
-3.32841e-75
5.20377e-83
9.64706e-86
-1.12037e-79
1.93287e-85
-7.20181e-87
-1.14337e-81
1.36111e-89
-3.55272e-91
2.01362e-85
5.91304e-93
2.15657e-93
-1.3525e-88
4.73588e-96
2.34483e-97
-3.04876e-91
7.23445e-99
1.04393e-100
4.13998e-94
1.20413e-101
-1.50253e-103
-3.72976e-97
2.70992e-105
-4.30059e-107
-6.4376e-101
1.79975e-108
3.44429e-110
-6.98353e-104
2.0287e-111
1.60769e-112
-3.54753e-107
4.48795e-114
3.63564e-115
-2.37561e-110
4.55759e-118
-1.51039e-118
3.20084e-118
1.55505e-121
-5.14436e-122
2.91159e-122
1.49217e-124
6.32662e-126
1.11389e-120
3.95273e-127
4.51583e-129
-4.65381e-123
5.5652e-130
1.35734e-130
-2.03249e-126
6.16003e-133
2.3158e-133
-4.08531e-129
1.62675e-136
-1.85336e-137
-1.1166e-132
2.15932e-139
7.0356e-140
-5.43847e-135
3.56231e-143
3.60841e-143
-1.61368e-138
3.64319e-146
-7.21949e-149
-5.74203e-143
2.357e-148
1.84328e-149
-2.20718e-145
3.12191e-153
4.58713e-153
1.0199e-07
3.98115e-08
-3.29122e-07
5.93013e-08
2.39191e-08
-1.5762e-07
1.88839e-08
-1.20241e-08
9.70224e-08
-8.57168e-09
-7.99267e-09
-8.59898e-09
-9.74536e-09
5.78163e-08
9.1422e-08
1.1382e-07
2.03932e-08
2.05763e-08
2.04241e-08
5.36803e-09
-2.63107e-08
1.57605e-08
1.49489e-08
4.68747e-09
-2.93095e-08
3.79935e-09
-3.35457e-08
-5.26094e-09
-6.62709e-09
3.41997e-08
-1.15156e-08
-3.04685e-09
-1.24745e-08
3.8329e-10
1.01721e-10
1.76584e-08
-1.74222e-10
1.80041e-08
-2.021e-17
1.66204e-18
2.76599e-08
2.03303e-18
-1.09039e-16
3.51676e-18
2.24176e-16
2.05417e-18
-1.83336e-23
-8.84623e-21
-9.14418e-23
7.32662e-22
9.28729e-21
1.16559e-21
3.5267e-22
1.90576e-26
-1.70963e-24
7.18862e-26
1.28216e-26
-7.38162e-28
2.26763e-29
9.35565e-30
-4.55319e-28
9.48777e-29
5.49673e-34
-7.31389e-30
1.41169e-32
1.74086e-37
-1.98375e-33
2.78272e-35
6.7644e-41
-1.74575e-37
1.56461e-38
2.82982e-44
-3.44364e-41
3.64571e-41
1.26573e-47
-1.2419e-44
-6.94023e-45
5.84375e-51
-2.44933e-48
3.94988e-47
2.66163e-54
-6.25066e-52
5.52819e-50
1.16504e-57
-1.18492e-55
4.17708e-55
5.3525e-61
-5.19948e-59
1.85975e-57
2.70828e-64
-1.38542e-62
-1.15498e-60
1.83927e-67
-1.26979e-66
4.53273e-63
9.2281e-71
-3.10456e-69
6.05302e-67
4.83724e-74
-2.23698e-74
-6.81391e-71
4.04232e-77
6.36929e-76
1.42409e-73
1.38866e-80
-2.0618e-79
1.56578e-75
1.46152e-83
-3.74539e-84
-2.42269e-80
4.73052e-86
-1.03665e-86
-6.13741e-82
4.93468e-90
-9.60821e-88
-6.28305e-86
3.86735e-93
3.15884e-94
-1.37099e-89
4.00765e-96
2.55267e-97
-1.29002e-91
1.12166e-99
-1.23257e-96
-6.9372e-95
5.8738e-103
-1.42604e-99
3.60441e-97
3.13123e-106
3.59466e-107
1.91783e-102
2.84113e-109
2.56718e-107
-2.25095e-104
1.01685e-112
-4.32365e-111
3.27846e-108
2.39471e-115
1.84013e-117
8.43541e-117
3.66123e-117
-1.86062e-117
-1.61927e-114
2.77018e-121
-9.16811e-120
4.59676e-117
7.24472e-125
-1.33732e-123
-1.62549e-120
4.54516e-128
4.52857e-127
-3.27508e-123
1.23826e-131
1.79511e-129
-1.92572e-126
5.55561e-135
2.30654e-133
-4.64888e-131
5.37019e-138
1.97011e-137
1.11747e-132
4.98329e-141
-1.04387e-140
-7.75039e-136
3.07226e-144
-2.76272e-141
-1.16147e-138
1.00741e-147
-8.83399e-145
-1.66948e-142
2.17645e-150
2.18609e-148
-7.05039e-146
5.29931e-154
-6.26181e-149
2.71848e-08
7.77458e-09
-2.47892e-07
-2.6098e-09
-2.11637e-08
3.15654e-07
-3.14464e-10
-1.31378e-08
8.24946e-07
-3.64508e-08
-1.31043e-08
5.61608e-09
8.50205e-07
8.22128e-07
8.45959e-07
-7.92499e-08
-2.78703e-09
2.36171e-08
-7.20409e-08
-7.9941e-08
-2.13397e-08
-2.53253e-07
-1.15888e-07
-1.4777e-08
-4.0422e-09
-6.98143e-09
-1.47756e-08
9.49841e-10
-4.43406e-08
5.42746e-09
8.06093e-09
3.11276e-08
5.04698e-10
6.04471e-10
6.75181e-10
-1.50634e-10
1.31835e-09
-2.05082e-14
5.14714e-16
-1.07802e-08
5.16937e-16
-1.07802e-08
-9.98355e-23
-4.18704e-18
-1.07342e-20
5.56156e-20
5.02784e-19
2.1048e-19
4.66141e-18
-4.06814e-18
-5.01822e-18
-4.0698e-18
-1.14215e-25
-1.25117e-22
-3.46495e-25
-7.27024e-27
-5.07379e-26
-1.03991e-28
9.38678e-28
-3.6988e-28
1.24869e-28
3.46632e-30
-9.48281e-30
2.29105e-30
4.51795e-34
-8.403e-33
1.29804e-32
5.20463e-38
-1.04189e-36
7.46314e-36
1.93726e-41
-2.32831e-40
2.17681e-40
8.32973e-45
-6.11469e-44
-3.26553e-42
3.65099e-48
-2.19218e-47
2.95707e-44
1.5932e-51
-5.78485e-51
-3.01713e-49
6.73849e-55
-1.29397e-54
8.85101e-52
2.96478e-58
-2.72529e-58
-1.65444e-54
1.28267e-61
-1.12187e-61
-3.79067e-58
5.72257e-65
-3.89138e-65
-4.62092e-61
2.61175e-68
-7.27114e-69
1.1692e-64
1.39677e-71
6.67885e-72
-7.28433e-68
8.73415e-75
-2.34928e-75
2.7169e-71
5.59969e-78
7.0491e-79
2.0782e-73
2.05002e-81
-1.77782e-82
3.92376e-79
4.91275e-84
-6.63343e-85
3.00876e-80
6.3657e-87
-3.07616e-88
-3.27436e-83
7.13679e-91
-2.15693e-91
1.81199e-91
1.69678e-93
-2.59372e-94
6.79912e-95
2.66637e-95
3.58315e-97
-4.99186e-92
4.22174e-99
3.51015e-100
-7.09382e-95
5.76219e-103
-1.42805e-104
1.897e-98
2.44714e-106
-1.32481e-107
-7.03056e-102
1.0036e-109
2.25474e-111
5.2539e-106
9.58374e-113
2.28756e-114
-2.95897e-109
4.80077e-115
2.53348e-116
-1.08676e-111
8.55472e-119
9.97002e-119
-4.01993e-114
2.84802e-122
1.14344e-123
1.1748e-119
2.28353e-125
6.22878e-126
-9.97599e-122
1.92026e-128
1.49979e-129
6.07243e-124
4.06905e-132
-1.85524e-134
-1.99044e-128
1.38979e-135
-2.24113e-136
7.44627e-131
3.01303e-138
-1.4827e-139
1.6446e-139
3.00962e-140
7.59976e-142
-5.26654e-136
2.89531e-144
3.22906e-145
-4.01764e-140
5.551e-148
-4.6752e-149
1.17266e-142
-8.04746e-152
3.05654e-152
-4.67482e-08
2.83274e-08
-4.70357e-07
2.55621e-08
2.6419e-08
3.8122e-08
-4.60792e-07
-4.68776e-07
-5.01759e-07
7.46237e-08
-6.24209e-09
-2.70768e-07
-1.09055e-08
-2.54435e-09
-1.47075e-08
-2.70554e-07
-3.05862e-07
-2.81484e-07
3.46247e-09
1.61621e-08
-4.56657e-07
2.59612e-08
6.35828e-09
1.91732e-08
-1.5847e-09
2.67841e-08
1.80604e-09
-4.5723e-07
-4.28189e-07
-4.87286e-07
-4.12034e-08
2.63158e-08
6.95327e-09
1.76585e-08
8.46953e-09
-5.97174e-08
-2.2752e-08
-2.69514e-08
-8.51589e-08
-2.49183e-10
-1.39523e-08
4.03056e-09
6.92551e-09
2.60537e-09
8.72637e-12
1.10294e-09
-1.69441e-09
2.84913e-13
-1.63465e-11
-1.09968e-10
-7.94337e-11
-3.614e-10
-2.45286e-10
-3.10008e-10
-3.00575e-10
-1.46469e-10
9.06732e-12
2.33415e-08
3.72032e-11
2.33642e-08
-5.16865e-16
-4.06855e-18
1.6191e-08
-4.49135e-18
1.22168e-24
-1.4268e-21
2.27515e-23
-1.62273e-21
-1.53555e-21
2.55796e-22
-1.66182e-21
3.59305e-27
-3.08886e-25
-3.1521e-27
-1.56419e-27
-1.41621e-27
1.80422e-29
9.6191e-30
-2.14894e-29
8.698e-31
5.46615e-33
-3.40227e-32
-3.61346e-33
2.962e-37
-9.92451e-36
9.33091e-36
8.59787e-41
-1.58719e-39
3.32713e-39
3.62426e-44
-9.8516e-44
3.4957e-42
1.55857e-47
-6.9283e-47
1.05547e-45
6.57042e-51
-7.44823e-50
-5.80861e-48
2.79192e-54
-6.26112e-54
7.08356e-51
1.18664e-57
-3.21175e-57
1.46838e-54
5.3267e-61
-1.74349e-60
1.71406e-59
2.76948e-64
-4.59595e-64
1.70802e-61
1.18041e-67
-6.60831e-67
-6.5496e-64
5.08445e-71
-2.57436e-71
7.1941e-67
2.29158e-74
-2.37291e-74
-6.3324e-71
1.80495e-77
-6.49374e-79
-3.2728e-73
5.47991e-80
4.09382e-81
-3.98686e-77
8.08924e-84
-2.15594e-83
-4.59265e-80
4.02197e-87
1.24752e-88
2.12842e-83
1.04223e-89
2.79554e-90
-2.37848e-86
3.23515e-93
1.48507e-93
-7.18491e-89
9.06927e-97
-5.73244e-95
-1.23149e-91
7.56551e-100
-9.17902e-101
-2.4489e-96
1.55491e-102
9.68352e-104
-2.07053e-99
1.92727e-106
4.62651e-108
1.06548e-102
1.20857e-109
-1.44587e-108
1.49046e-105
3.35491e-112
-1.76125e-113
-3.09657e-108
1.17397e-114
3.08986e-115
-4.29645e-111
1.67662e-118
-5.21468e-118
2.62199e-114
8.01038e-122
-7.65901e-122
-1.03543e-117
9.2039e-125
1.42909e-125
2.15934e-120
3.21326e-128
9.53464e-128
1.13416e-123
4.11104e-131
-5.15671e-130
2.03977e-126
4.96159e-134
-8.3488e-135
-2.38944e-130
1.19897e-137
6.23734e-138
-1.11295e-133
3.72326e-141
5.82625e-141
-5.46674e-137
1.88388e-144
5.13653e-145
2.5537e-140
1.72845e-147
-2.90194e-146
-6.73986e-143
-3.34582e-149
-4.07323e-147
6.67377e-08
-3.27477e-08
-4.02913e-09
-2.18304e-08
3.74445e-08
2.29597e-08
1.42101e-09
-1.42578e-09
-6.67938e-10
1.149e-09
1.02363e-09
-5.31381e-08
-4.67903e-08
-4.58251e-08
-4.63626e-08
4.78211e-08
2.90038e-09
3.87601e-08
-1.95737e-08
3.52015e-09
-1.99355e-08
2.61569e-08
-7.14811e-08
-4.61691e-08
-8.75082e-08
-7.28578e-10
3.66521e-08
2.84199e-08
-3.32763e-09
1.87143e-07
-1.08691e-07
-5.42151e-08
1.97942e-07
-6.48156e-10
-2.45556e-08
2.40798e-09
-8.89797e-09
3.00528e-08
-2.93866e-09
2.57046e-09
8.12072e-10
-3.22447e-09
-1.76565e-10
4.77366e-11
-3.46361e-10
6.00729e-10
-2.12775e-10
2.72548e-11
3.08607e-08
-1.59589e-10
3.14415e-08
1.29929e-16
-6.09912e-18
-5.95057e-09
-5.65368e-18
1.27197e-16
1.39306e-16
1.17151e-16
-5.63542e-18
8.96942e-24
-1.64571e-21
3.54777e-22
-5.06569e-22
-1.58583e-22
2.6334e-21
1.41026e-21
1.13517e-26
-2.65135e-25
-1.83825e-26
-2.50474e-27
-1.39751e-27
4.52282e-29
1.29124e-28
-2.49633e-29
3.17972e-29
1.84883e-31
6.24964e-32
1.00245e-31
1.09412e-35
6.99207e-35
-3.74661e-33
2.16834e-39
8.40214e-39
-1.6269e-36
8.78699e-43
1.33129e-42
1.40766e-40
3.74852e-46
4.53879e-46
2.08984e-43
1.59936e-49
1.33122e-49
-2.563e-46
6.79024e-53
-6.91233e-53
2.62522e-49
2.94563e-56
1.26687e-56
-1.04633e-53
1.32538e-59
4.50582e-60
4.3859e-56
5.25749e-63
1.11718e-63
2.57585e-59
2.28044e-66
1.23097e-67
-2.00465e-62
1.01292e-69
2.54693e-70
-4.11321e-68
4.50726e-73
-1.79989e-73
3.93736e-68
2.72023e-76
2.03997e-76
1.16384e-71
2.24945e-79
9.42711e-81
1.39541e-75
2.38245e-82
5.34263e-84
-3.88161e-78
3.26867e-85
-4.36291e-84
-1.56948e-79
1.76376e-88
-7.70868e-89
-1.57901e-84
8.7841e-92
1.7429e-92
2.99532e-87
2.63409e-94
-4.68366e-96
-8.12609e-90
2.38888e-98
-2.84519e-99
4.6179e-94
7.85049e-102
-9.89058e-103
-1.55151e-97
9.68867e-105
2.05777e-105
1.18195e-100
3.16609e-107
1.50029e-108
-8.85863e-103
3.02074e-111
-9.31202e-112
1.44338e-106
2.20611e-114
-4.48772e-115
4.11359e-115
6.96017e-117
1.5665e-118
1.40311e-112
9.18358e-121
3.01195e-121
1.25102e-115
9.48174e-124
-3.68927e-123
3.05375e-118
2.50951e-126
1.07425e-126
-2.24472e-121
9.26962e-130
-4.30538e-130
2.10397e-125
2.87631e-133
1.33365e-134
-1.64844e-128
4.80285e-136
-7.28238e-137
1.13905e-133
2.14916e-138
2.05869e-139
2.29259e-134
3.71209e-142
1.64042e-142
3.52126e-138
2.7577e-145
7.62469e-146
-3.06514e-141
1.01048e-149
-1.66406e-144
1.69943e-08
1.98309e-09
-8.87989e-09
-7.88056e-08
-2.17147e-08
6.98696e-09
-2.1691e-08
-2.13767e-08
-4.95555e-09
-4.57997e-08
3.22516e-10
-5.44706e-08
-6.11363e-08
-5.69968e-08
-5.61211e-08
-4.41293e-09
-2.27562e-09
7.2141e-10
-2.27001e-09
-1.16995e-07
-1.06454e-07
-9.47455e-08
9.95125e-08
-5.22499e-08
-4.56509e-08
-4.50704e-08
1.31647e-09
-3.60495e-08
-4.82583e-08
8.46408e-08
8.02879e-08
6.26341e-08
6.70996e-08
6.44387e-08
2.91533e-08
-1.38181e-09
2.45228e-08
2.59834e-08
-2.16714e-08
1.00948e-09
3.22261e-08
4.28577e-10
-9.96949e-10
-3.20614e-08
-1.40568e-09
2.5914e-09
9.66857e-10
-2.25964e-09
-1.99702e-10
-5.99856e-10
-1.69636e-09
2.05945e-10
-4.3406e-10
8.68735e-11
6.27437e-08
-3.90668e-10
6.37953e-08
-3.05327e-16
-7.5791e-18
-6.55702e-09
-6.55702e-09
-7.83204e-18
-2.9159e-16
-3.48172e-16
-2.38593e-16
1.08134e-23
-7.04136e-22
4.68577e-22
1.45082e-21
7.96889e-22
2.98653e-21
2.80003e-21
2.11258e-26
-3.44558e-26
-8.36666e-27
-1.14791e-27
-3.12352e-28
-1.41772e-28
9.67529e-29
1.03067e-29
-2.66854e-29
1.38428e-31
1.55745e-31
-7.20587e-33
8.14803e-36
7.54944e-35
-6.6118e-33
1.62133e-39
9.46927e-39
-2.43622e-36
6.75048e-43
2.31049e-42
3.37924e-40
3.00615e-46
5.19694e-46
1.32173e-42
1.38028e-49
1.70915e-49
-1.08736e-46
7.1477e-53
2.83814e-53
8.42783e-49
2.59198e-56
5.79595e-57
-9.0384e-53
1.08114e-59
4.3596e-60
-3.45112e-56
5.1879e-63
-2.36945e-64
1.06982e-58
3.38127e-66
1.36579e-66
1.32863e-62
2.04181e-69
5.41531e-72
9.28996e-66
2.31897e-72
-9.0363e-73
1.23422e-67
5.95729e-76
2.65645e-77
6.32637e-71
6.45995e-79
-1.64229e-81
8.45375e-75
3.01772e-81
6.54431e-83
-5.41341e-78
2.19688e-84
5.83204e-85
-1.40532e-79
2.32013e-87
1.00313e-87
-1.54971e-83
6.60321e-91
8.76979e-92
-1.6836e-87
1.61855e-94
1.63927e-95
-6.70062e-91
1.01884e-97
4.41311e-99
-1.17705e-92
9.62244e-101
2.85418e-101
-3.13699e-96
2.45016e-104
-5.10865e-106
1.84142e-100
1.95255e-107
-1.91413e-108
-2.40222e-102
3.22125e-110
1.64708e-111
-1.49217e-105
5.60716e-114
1.30415e-116
5.83568e-112
6.91076e-117
-2.78884e-119
1.11057e-114
1.09303e-119
-9.45287e-121
1.16362e-115
1.34936e-122
1.43294e-123
1.24091e-118
3.85847e-126
2.87478e-128
-1.44887e-121
1.35903e-129
-4.07052e-130
1.31901e-124
7.02104e-133
-1.3337e-134
-1.09328e-128
5.00614e-136
-1.47419e-139
-3.23039e-132
1.03867e-139
7.12693e-141
6.76205e-141
4.52133e-143
2.20227e-144
7.46184e-138
2.20991e-146
9.2837e-148
-9.46584e-141
6.27518e-151
6.89435e-150
2.66046e-08
-2.0788e-08
3.66179e-09
-2.61235e-08
-2.34864e-08
-2.78715e-08
-2.19327e-08
1.61464e-08
1.01156e-07
2.05468e-07
4.38535e-07
9.76228e-08
-1.14918e-07
7.94166e-08
7.97643e-08
7.993e-08
7.67793e-08
5.40074e-08
4.57426e-08
4.88693e-08
5.24123e-08
1.32181e-08
1.42032e-08
1.55857e-08
4.43497e-08
4.79472e-08
7.59339e-08
-3.08834e-08
-2.80411e-08
-6.52181e-08
-5.76544e-08
-3.76769e-08
-1.70412e-08
-2.43741e-08
-5.74269e-08
-5.31437e-08
-5.57971e-08
2.10958e-08
7.00059e-08
3.32882e-08
-8.99399e-08
-5.78777e-08
-2.37534e-07
-5.82867e-08
2.19776e-08
2.22813e-08
2.20446e-08
2.22016e-08
2.77144e-09
-2.84029e-09
1.99319e-09
-4.10283e-09
1.42721e-10
-1.60777e-09
-3.98443e-10
2.17524e-09
-1.02499e-09
1.07769e-09
-7.33541e-10
-1.27144e-09
4.16407e-10
6.23086e-10
5.15484e-10
4.80168e-10
-2.34986e-10
-1.21107e-11
2.21761e-08
1.48488e-11
2.23981e-08
7.77443e-16
-1.72584e-18
1.83309e-08
1.83309e-08
-1.79092e-18
7.78841e-16
7.7711e-16
7.75528e-16
-2.19506e-24
4.81592e-22
5.69782e-23
9.06899e-22
7.68897e-22
6.94935e-22
1.11382e-22
8.41551e-27
7.06238e-26
-1.69414e-26
-4.39743e-28
3.58124e-28
-1.04071e-29
7.42434e-30
9.81425e-30
3.1837e-31
4.81371e-33
9.71873e-33
2.069e-33
2.63859e-37
1.22144e-36
1.5686e-36
7.68504e-41
2.60892e-40
3.27109e-41
3.21181e-44
6.69903e-44
1.6399e-42
1.37089e-47
1.80881e-47
1.0185e-44
5.84465e-51
6.47271e-51
5.36496e-48
2.58367e-54
1.89273e-54
-1.30164e-51
1.18184e-57
4.71723e-58
-1.69843e-54
4.75749e-61
1.45864e-61
-1.42507e-58
2.08358e-64
2.72289e-65
8.77557e-61
8.95774e-68
1.07663e-68
-2.33517e-65
4.18156e-71
2.51974e-72
1.03915e-67
1.62027e-74
5.72483e-76
3.63133e-70
7.81507e-78
-3.0152e-78
-2.14608e-74
2.02558e-80
-1.23081e-81
-1.40557e-77
1.05194e-82
3.59574e-84
-2.47924e-79
6.99177e-87
-8.45502e-88
1.57293e-84
1.96053e-90
-1.46558e-90
2.50793e-89
8.22427e-94
-9.78755e-95
-4.50284e-91
4.29644e-97
-9.29838e-98
3.33228e-98
3.44169e-100
-2.1638e-102
6.08511e-96
1.62691e-103
9.21137e-105
-1.11162e-99
1.43203e-106
5.05077e-107
7.0677e-102
9.44326e-110
7.3226e-111
1.27224e-105
2.19801e-112
-1.0793e-113
-1.92125e-107
9.92826e-116
6.78846e-117
-1.03274e-111
2.43542e-119
-3.43719e-119
-6.01541e-115
1.83195e-122
-2.68988e-125
-1.73574e-117
2.2836e-125
-4.44917e-126
-7.64114e-121
9.28385e-129
-5.87608e-130
-1.94751e-123
5.45919e-132
9.00102e-133
-1.39775e-127
3.94954e-135
-4.59389e-136
-6.32167e-130
5.6307e-138
7.4566e-140
-7.64131e-134
3.45072e-140
1.0458e-142
-1.03641e-136
2.14061e-144
-1.52756e-145
3.88785e-145
2.40031e-147
-4.99207e-150
7.26941e-149
9.49886e-151
-4.98884e-146
-9.23599e-11
-2.85594e-08
-2.10724e-08
-2.81517e-08
-2.86818e-08
-2.9705e-08
-2.77527e-08
-5.87194e-08
8.00257e-08
-1.40934e-08
7.56198e-08
-3.84339e-08
1.05374e-08
6.75903e-08
-3.74404e-08
7.5196e-08
-2.40738e-08
-5.58634e-09
1.20505e-08
-4.99888e-08
-2.57211e-08
5.26801e-08
1.38072e-08
1.48462e-08
1.39856e-08
-4.27492e-08
-4.10563e-08
-1.75715e-08
-2.4196e-07
-2.86005e-08
5.65127e-09
1.59577e-08
9.68561e-10
-1.18142e-09
-2.38111e-08
7.1672e-10
-2.25979e-09
-9.71891e-11
-1.05168e-09
-1.88871e-09
-1.30551e-09
2.71682e-11
-6.23522e-11
1.45792e-10
3.27168e-10
9.95227e-11
2.75552e-11
5.26251e-11
6.58445e-11
-1.06122e-10
-1.43685e-11
-1.26096e-08
2.28507e-11
-1.26132e-08
-5.21756e-22
1.12904e-20
-7.77732e-21
6.55792e-19
6.17063e-20
6.08393e-18
6.31662e-20
5.29584e-18
5.44819e-18
4.2e-18
5.44612e-18
1.15959e-26
3.81272e-24
-6.30054e-25
4.46866e-26
9.75704e-27
5.4457e-29
9.66473e-28
5.91813e-28
8.4904e-29
3.01611e-30
6.69663e-30
5.27545e-30
4.02449e-34
1.5569e-33
3.97816e-32
4.70776e-38
1.40713e-37
-1.97707e-36
1.74074e-41
3.86059e-41
3.94089e-39
7.45086e-45
6.88195e-45
5.22485e-42
3.25423e-48
1.52245e-48
-1.01412e-44
1.47756e-51
1.05949e-51
-1.12874e-47
6.55152e-55
1.47072e-55
6.2496e-51
2.81905e-58
4.40075e-59
1.52212e-55
1.40452e-61
3.28057e-62
7.92716e-58
5.61155e-65
1.15143e-65
-7.028e-61
2.19786e-68
5.14293e-72
-8.98992e-66
1.67672e-71
-1.93437e-74
-9.93855e-69
4.54473e-74
3.36851e-75
1.93407e-71
1.9364e-77
6.58064e-79
-1.22013e-73
3.29594e-81
7.53499e-82
-2.1719e-76
6.74557e-84
1.03462e-86
1.50329e-84
9.88153e-86
-5.73266e-88
-2.0073e-82
4.24214e-90
-4.6137e-92
2.82511e-87
1.88217e-93
1.72162e-94
-3.36657e-92
1.30168e-96
-1.78727e-97
2.3192e-92
3.38022e-100
5.02167e-101
-5.31065e-96
3.06736e-103
-8.86684e-105
2.10662e-99
4.16242e-106
5.58354e-107
6.28947e-102
1.07711e-109
1.00924e-110
3.13224e-105
1.38576e-112
4.10438e-113
-1.37827e-107
9.84062e-116
1.3704e-117
-5.15793e-112
1.10645e-118
5.02977e-120
-2.2573e-114
2.98159e-122
-9.10294e-124
-4.50293e-118
5.93992e-125
-1.18484e-126
-5.22719e-120
1.63152e-128
7.83726e-129
-2.54631e-123
8.78837e-132
2.02305e-133
3.8525e-127
3.91983e-135
2.90115e-136
-9.87933e-130
1.07661e-138
2.91968e-139
-1.05331e-138
4.12608e-142
-1.19444e-144
1.39061e-142
1.61426e-145
-2.52009e-146
2.7637e-146
6.39382e-149
-2.91445e-149
5.32794e-149
3.52971e-154
-1.11886e-147
2.02252e-08
-2.05733e-08
-2.29306e-08
-3.50393e-08
4.05461e-08
-2.33461e-08
-7.89677e-08
-6.77368e-08
3.97227e-08
4.17713e-08
3.81797e-08
-7.7545e-08
-2.07605e-08
9.06021e-08
-2.67902e-08
7.37159e-08
1.14767e-07
1.33685e-08
4.66519e-08
2.41312e-08
3.23291e-08
1.28956e-09
6.83445e-08
2.79841e-09
5.83341e-08
-6.38384e-08
-4.86917e-08
-5.33453e-08
-6.50913e-08
3.00856e-07
1.41098e-07
-3.95454e-07
-9.86124e-08
-6.3854e-09
6.2779e-09
-5.19562e-09
-3.62885e-09
8.07731e-09
-6.09404e-12
2.92992e-10
-2.48787e-08
2.37279e-10
-2.5023e-08
-1.87268e-13
-1.30192e-15
3.22594e-08
3.22594e-08
-3.77317e-16
-1.24529e-14
2.23493e-13
-1.86701e-14
-2.85108e-15
-3.48803e-16
-3.37996e-16
1.50718e-23
1.14593e-22
5.83127e-22
2.48612e-20
4.2791e-21
-2.81117e-20
1.05155e-20
-3.49571e-26
1.37355e-26
1.3372e-26
1.07252e-26
-8.22872e-28
3.2544e-29
4.06913e-29
5.64894e-29
2.27031e-28
2.77443e-33
5.46312e-31
5.41206e-31
3.54776e-37
1.9263e-34
1.53328e-34
1.3616e-40
2.37932e-38
4.63559e-38
5.86203e-44
5.55075e-42
-1.79655e-40
2.70571e-47
1.24098e-45
-1.02369e-43
1.24962e-50
3.50626e-49
-5.60475e-47
5.71121e-54
5.5211e-53
8.04066e-50
2.40829e-57
-9.06072e-58
-2.64007e-53
1.05254e-60
6.63533e-60
-2.98419e-57
4.7061e-64
7.03504e-64
5.30993e-60
2.02772e-67
3.32956e-67
1.77217e-63
3.67507e-70
-5.13925e-72
1.11721e-66
2.00214e-72
1.61987e-74
-3.27264e-69
1.02885e-76
-1.33798e-77
2.03786e-74
3.0053e-80
-9.27592e-81
1.75777e-76
1.26854e-83
-3.07284e-84
-4.74517e-79
5.47755e-87
-7.2022e-87
-2.66246e-82
4.13837e-89
-2.78074e-90
-7.67195e-87
1.72941e-90
1.22985e-94
-4.59973e-88
7.23184e-95
1.02399e-97
-7.4655e-92
8.96073e-99
1.46234e-100
-3.11804e-94
4.4922e-102
-1.4206e-103
-7.69739e-100
5.87523e-105
2.16575e-107
-5.2691e-101
1.22003e-108
-2.3021e-111
3.4345e-104
5.83213e-112
4.08126e-113
-2.087e-107
1.78868e-115
-3.79201e-116
7.19166e-112
1.48146e-118
7.05488e-119
3.05027e-119
5.36469e-121
2.88846e-122
-2.34365e-117
4.40666e-124
-2.55646e-126
-3.12676e-120
4.13812e-127
7.97032e-129
-4.27463e-123
8.35531e-131
9.29374e-132
-6.98564e-126
3.39892e-134
-1.92966e-136
-3.27195e-129
1.69239e-137
-5.78322e-138
1.1413e-132
1.23039e-140
-7.25476e-142
-1.06918e-136
4.42356e-143
2.62805e-144
8.13453e-139
4.69039e-146
-3.68928e-147
-2.8599e-142
2.98986e-149
-2.39811e-150
-7.82184e-145
-5.26076e-154
4.90494e-150
5.13729e-08
4.37158e-08
3.14831e-08
3.26595e-08
3.177e-08
3.35029e-08
3.35692e-08
7.44084e-08
4.19925e-08
2.92239e-08
3.84333e-08
3.60576e-08
3.11228e-08
3.25346e-08
2.97589e-08
1.42972e-07
4.55208e-08
3.38712e-08
-1.5926e-08
-3.2434e-08
3.18219e-08
5.70558e-08
3.19438e-08
-2.15167e-08
-7.7859e-09
-2.78074e-08
-1.4301e-08
-7.12605e-09
4.92008e-08
2.1046e-08
-2.18262e-07
-5.85071e-08
-9.09475e-10
-1.61179e-08
7.48608e-09
6.22146e-09
1.91008e-09
1.21685e-10
-1.65489e-10
1.8059e-08
-2.04683e-10
1.81367e-08
2.37593e-16
-6.00915e-19
-8.6122e-09
-8.6122e-09
-3.04513e-18
2.26389e-16
2.36856e-16
2.0993e-16
-3.2633e-24
6.77304e-23
7.07504e-22
-4.47844e-22
-2.13636e-21
1.56512e-21
3.7027e-26
-1.00817e-26
-2.07427e-27
-6.58385e-30
6.2441e-29
6.1663e-31
2.54967e-31
1.30265e-32
2.5603e-35
-7.24901e-36
3.12576e-39
5.52496e-39
1.18434e-42
-1.97627e-42
5.01846e-46
9.39917e-46
2.13782e-49
-1.17793e-47
9.11399e-53
-9.83446e-51
3.87102e-56
-5.97947e-55
1.63457e-59
7.84176e-57
6.89836e-63
-9.12479e-61
2.90104e-66
9.36553e-64
1.21958e-69
-2.09664e-67
5.13337e-73
-2.81447e-70
2.30062e-76
1.54223e-73
1.09817e-79
-4.06453e-76
4.45456e-83
-1.29751e-79
2.41152e-86
-1.02314e-82
1.14345e-89
-1.39921e-86
8.24447e-93
-3.29743e-89
5.55037e-96
7.21611e-92
2.96567e-99
-3.23406e-95
1.76489e-102
1.56383e-99
6.11357e-106
-2.25367e-102
9.22493e-109
-1.20036e-104
1.5788e-111
6.96576e-108
5.72724e-115
9.84116e-111
1.45756e-117
-5.12863e-114
1.57656e-121
2.08309e-119
4.8571e-125
-3.1925e-121
6.87035e-128
-6.80497e-124
4.19118e-130
-6.33298e-126
4.74923e-134
6.83868e-130
2.55648e-137
-1.01217e-132
2.9124e-140
-5.14862e-136
1.14182e-143
1.03632e-138
6.97243e-147
-4.80329e-143
3.20796e-150
2.01831e-145
1.3924e-149
-7.70217e-10
-1.04596e-09
-4.88864e-08
-3.94379e-10
4.53594e-10
-1.65704e-10
-1.65545e-07
9.37388e-10
-8.23913e-09
2.25379e-07
-5.62891e-10
-3.12158e-08
-5.20549e-08
-2.04812e-09
3.59604e-09
1.0549e-07
4.72269e-08
-1.07646e-07
4.35303e-08
-4.96573e-07
-2.85959e-08
2.20543e-08
-3.61547e-07
3.10066e-08
3.1653e-08
3.00926e-08
3.24212e-08
-5.60008e-08
6.21736e-09
-8.18827e-09
-2.13729e-09
6.08685e-08
-4.78182e-10
9.65625e-11
-1.5727e-10
4.81907e-08
4.85568e-08
-5.47783e-16
1.2405e-18
-1.40858e-17
-1.02668e-08
2.15953e-18
-5.84129e-16
-5.37656e-16
-6.17136e-16
2.61408e-24
1.41562e-21
2.10388e-22
-5.53332e-20
-6.05461e-20
-4.93666e-20
-6.11341e-20
4.01286e-26
4.12338e-24
2.14281e-27
-2.22195e-28
-3.93442e-25
-9.62277e-30
3.43764e-28
-1.03185e-26
-1.85093e-30
4.61446e-30
-6.79399e-30
2.26647e-32
4.23481e-33
-1.16232e-32
9.42759e-35
7.14862e-37
-4.18219e-36
1.28338e-38
3.12749e-40
-1.52741e-39
1.23294e-40
2.38361e-43
-6.87421e-43
1.55573e-45
1.81379e-46
-2.98353e-46
-6.06189e-48
1.33192e-49
-1.56856e-49
-6.55996e-51
9.72462e-53
-6.83606e-53
4.03906e-53
7.08592e-56
-4.25049e-56
-1.97598e-56
5.14572e-59
-2.31902e-59
-5.53846e-60
3.72789e-62
-1.21744e-62
1.48166e-63
2.693e-65
-4.46838e-66
1.6072e-66
1.93941e-68
8.21249e-70
-1.01114e-70
1.39356e-71
-1.38502e-72
4.41765e-72
9.99299e-75
-3.40077e-76
1.89829e-75
7.14674e-78
1.72408e-80
1.11194e-80
5.09746e-81
3.17806e-82
2.6657e-81
3.62767e-84
-1.11119e-85
-2.2248e-85
2.57414e-87
1.49403e-87
1.59254e-88
1.82337e-90
8.11034e-91
-4.40825e-92
1.28925e-93
7.2871e-95
-9.30391e-94
9.10087e-97
8.13943e-98
-7.43847e-97
6.41187e-100
2.12322e-101
4.2093e-101
4.50514e-103
4.52983e-104
-3.22068e-104
3.15616e-106
5.58595e-107
-5.39279e-107
2.20787e-109
-8.99869e-111
-5.10174e-111
1.54244e-112
1.52319e-113
-6.59473e-119
1.07533e-115
-4.42481e-117
8.17489e-117
7.48215e-119
6.25785e-120
9.2913e-121
5.19454e-122
1.14879e-123
-2.89825e-123
3.59839e-125
8.18117e-126
4.07756e-125
2.48619e-128
7.83568e-129
-8.37474e-130
1.71413e-131
-5.86125e-133
1.00063e-132
1.17933e-134
-1.10743e-135
5.94704e-135
8.10451e-138
2.44251e-138
3.01768e-138
5.55506e-141
-6.72576e-143
1.10068e-142
3.65249e-144
3.34961e-146
-2.60412e-145
4.70974e-148
3.63226e-148
4.17249e-09
1.62406e-08
-3.40569e-08
2.44218e-08
2.2209e-08
2.34499e-07
2.45265e-08
2.62481e-08
2.63189e-08
1.22414e-08
1.18706e-08
1.24606e-08
1.24836e-08
-1.63215e-08
9.65841e-08
2.33749e-08
2.38068e-08
-1.64152e-08
-1.55878e-08
-1.68057e-08
-3.65683e-07
-1.48391e-08
-3.47921e-08
-1.64312e-08
-1.60604e-08
-1.04658e-08
-1.6624e-08
-1.23514e-08
-3.81563e-07
1.79864e-10
2.41078e-08
2.14883e-08
2.77555e-09
6.11887e-08
3.13027e-08
4.1669e-08
3.63e-09
4.00911e-08
-3.57798e-09
5.09514e-09
-8.7534e-08
6.09173e-10
-2.68438e-10
-6.57454e-11
-5.79776e-11
3.38699e-10
-2.58054e-10
-3.46757e-17
4.98557e-18
-4.86355e-16
7.15614e-18
1.67313e-18
2.87017e-16
-2.2086e-17
2.92013e-16
1.20465e-17
-7.49625e-22
-2.74938e-20
1.06369e-22
-2.80218e-20
-1.58473e-21
-2.84381e-20
-1.26067e-21
-5.09804e-25
-1.36613e-23
-7.70036e-26
1.94624e-24
-3.35035e-25
-1.08e-29
1.06946e-26
-2.762e-26
-3.066e-29
3.32684e-30
-1.12745e-27
4.58395e-32
4.84607e-34
-5.71302e-30
6.15628e-36
2.85163e-37
-2.28479e-33
4.45509e-39
2.10172e-40
-4.64628e-37
4.71746e-41
1.5247e-43
-2.44971e-40
7.16375e-45
1.08157e-46
-8.11115e-44
-3.15856e-47
7.64577e-50
-3.30578e-47
-6.71984e-50
5.37857e-53
-1.39368e-50
-9.58685e-55
3.79199e-56
-8.72232e-54
9.19055e-57
2.67037e-59
-1.81829e-57
9.08133e-61
1.89909e-62
-3.10341e-60
5.89529e-64
1.33191e-65
-5.77824e-63
1.42576e-66
9.13415e-69
2.46284e-68
8.48672e-70
6.37482e-72
3.41527e-71
-1.42927e-73
4.4374e-75
-2.87445e-74
-8.50304e-76
3.07354e-78
-1.92255e-76
8.49942e-81
2.12356e-81
4.87788e-83
1.26423e-82
1.46851e-84
-6.44828e-83
9.19523e-87
1.00927e-87
1.16179e-88
1.11832e-88
6.96994e-91
2.41032e-90
8.2583e-92
4.83486e-94
-1.35289e-92
-7.63216e-95
3.31718e-97
-2.23933e-95
-2.82078e-97
2.25067e-100
5.75779e-101
3.95294e-102
1.54125e-103
-1.00405e-102
-4.58544e-105
1.05248e-106
-4.29593e-107
8.49534e-108
7.17825e-110
7.90588e-109
8.74029e-112
4.87637e-113
-3.66681e-111
1.00859e-113
3.3081e-116
1.61573e-116
-4.05185e-121
2.24309e-119
-2.76243e-118
5.49368e-121
1.51822e-122
1.31877e-120
-3.91323e-124
1.02672e-125
-1.50182e-124
1.03634e-126
6.92404e-129
-2.60456e-127
7.59783e-130
4.66499e-132
1.97577e-130
-1.02607e-132
3.13938e-135
-1.33562e-133
3.91803e-136
2.11193e-138
2.60435e-136
9.01085e-139
1.41047e-141
1.08889e-139
1.2987e-142
9.14514e-145
4.06292e-143
-1.41153e-145
1.56259e-146
-1.43772e-154
5.28784e-09
2.48476e-08
-1.28349e-07
2.48678e-08
2.4406e-08
2.37299e-08
3.58435e-08
2.75315e-09
2.78562e-07
-6.48559e-10
3.19583e-09
-2.73236e-09
3.6312e-08
3.67874e-08
3.68099e-08
7.58862e-09
3.67644e-08
3.57381e-08
9.82632e-09
-2.35079e-07
-2.76311e-08
-4.65184e-08
-3.9473e-08
-4.86864e-08
-1.02646e-07
7.25473e-08
-1.31478e-07
-1.87593e-07
-1.22167e-07
-1.4682e-08
3.80667e-08
-2.00471e-08
6.41068e-10
7.0783e-09
2.03622e-09
7.09388e-09
1.35471e-07
3.85442e-07
5.94249e-07
6.53546e-08
8.22503e-09
2.53134e-09
-2.88624e-08
4.50373e-09
4.55186e-09
9.74008e-09
8.31724e-10
-1.36715e-10
7.26288e-10
-1.08104e-09
1.6044e-10
-2.67871e-10
-4.42108e-14
-4.975e-15
4.00622e-15
-1.41984e-14
2.59779e-15
8.24672e-16
-2.39931e-22
-1.49235e-17
1.1188e-20
3.10436e-19
7.94495e-18
3.03809e-19
7.74894e-18
-1.3039e-17
-1.50479e-17
-1.30393e-17
-3.89358e-25
-1.41391e-22
4.21267e-25
2.16319e-25
-5.46203e-25
2.11962e-28
9.04508e-26
-1.00756e-26
-2.29973e-29
1.76854e-27
-4.86317e-28
2.69136e-30
1.77781e-30
-2.66337e-30
4.09259e-33
2.16435e-34
-2.16567e-33
-1.35696e-36
8.43077e-38
-5.48202e-37
-1.81178e-39
6.36885e-41
-2.24762e-40
6.21619e-42
4.67451e-44
-9.66412e-44
-3.53908e-45
3.32463e-47
-4.30933e-47
3.57571e-48
2.35683e-50
-2.40533e-50
-5.52427e-52
1.66696e-53
-1.40676e-53
8.81917e-54
1.1762e-56
-5.75702e-57
-1.62841e-58
8.2813e-60
1.36806e-60
-1.67234e-60
5.81015e-63
-6.41429e-64
-1.84386e-63
4.06403e-66
-9.46131e-67
1.02181e-66
2.83927e-69
-5.83077e-70
-9.40507e-71
1.97853e-72
1.01698e-75
-2.36486e-73
1.37463e-75
4.32935e-76
-3.82741e-77
9.5471e-79
2.9789e-80
-5.67868e-80
6.61854e-82
-1.60119e-82
3.2661e-83
4.57762e-85
6.64621e-86
-1.18678e-91
3.16411e-88
-4.25889e-89
-5.54309e-90
2.18028e-91
4.0437e-92
2.27343e-92
1.49728e-94
4.91609e-96
1.06914e-95
1.02754e-97
9.71309e-99
8.65985e-99
7.04108e-101
-4.8164e-103
6.55423e-102
4.81424e-104
3.19327e-105
-1.80107e-105
3.28727e-107
1.10349e-109
-4.07253e-109
2.23939e-110
2.51785e-111
2.08199e-112
1.52132e-113
-6.00736e-114
5.02612e-114
1.03252e-116
9.31781e-119
-1.10546e-117
6.99607e-120
-9.97407e-121
9.89185e-121
4.733e-123
-1.54223e-123