/*--------------------------------*- C++ -*----------------------------------*\
| =========                 |                                                 |
| \\      /  F ield         | OpenFOAM: The Open Source CFD Toolbox           |
|  \\    /   O peration     | Version:  5.0                                   |
|   \\  /    A nd           | Web:      www.OpenFOAM.org                      |
|    \\/     M anipulation  |                                                 |
\*---------------------------------------------------------------------------*/
FoamFile
{
    version     2.0;
    format      ascii;
    class       volScalarField;
    location    "5";
    object      alpha.water;
}
// * * * * * * * * * * * * * * * * * * * * * * * * * * * * * * * * * * * * * //

dimensions      [0 0 0 0 0 0 0];

internalField   nonuniform List<scalar> 
9655
(
1.0637
1.06758
1.02984
1.05254
1.00591
1.0006
0.968367
-5.33576e-19
4.66952e-15
5.74261e-17
2.23967e-18
3.41155e-19
5.3217e-21
3.73002e-24
2.17044e-28
5.057e-32
2.03855e-35
8.90116e-39
3.92927e-42
1.60887e-45
7.81004e-49
3.53617e-52
1.51544e-55
5.60243e-59
2.90232e-62
2.52684e-65
8.15212e-69
2.29277e-72
2.26386e-74
4.49032e-78
8.44099e-82
9.25303e-85
1.27699e-87
2.97747e-90
8.521e-94
6.04139e-97
2.78796e-100
9.68867e-103
1.61018e-106
1.71435e-110
1.32342e-113
5.85847e-116
1.02676e-118
1.82262e-121
2.89999e-125
6.06212e-128
1.23645e-131
1.09832e-135
1.85243e-137
8.56078e-141
1.0305
1.04144
1.01836
1.01887
1.02469
1.01404
1.00073
-1.54841e-23
-3.01948e-19
-1.61386e-23
1.9181e-17
3.51938e-19
2.41577e-22
6.57277e-26
1.63564e-29
4.85181e-33
1.97009e-36
9.29456e-40
4.92083e-43
1.73159e-46
9.07656e-50
3.81221e-53
4.17449e-56
2.86148e-59
9.64148e-63
1.18468e-65
5.74845e-69
1.09727e-72
7.04767e-75
1.51886e-78
8.12517e-82
1.26868e-84
2.84284e-88
2.95362e-91
7.59803e-95
8.67402e-98
4.83067e-101
3.32815e-105
1.53391e-106
1.26593e-109
1.49512e-113
1.52694e-116
2.06828e-120
3.52257e-124
1.127e-126
1.05922e-129
1.05778e-132
1.7187e-136
1.26338e-139
1.22325e-141
1.03944
1.01675
1.01433
1.04788
1.01492
1.00067
1.00121
-9.87287e-18
-1.73233e-18
-1.68628e-21
1.92087e-17
3.81674e-18
9.14553e-20
1.37417e-22
1.24068e-26
1.76788e-30
7.11925e-34
3.30678e-37
1.76941e-40
5.91009e-44
3.25122e-47
1.3078e-50
7.27216e-54
3.12752e-57
2.44313e-60
1.68784e-63
2.03145e-66
1.53915e-70
5.73737e-73
1.59569e-75
2.20382e-79
2.64093e-83
1.03761e-84
1.44009e-87
1.46385e-91
4.74021e-95
2.27919e-98
2.94007e-102
4.42467e-104
3.50621e-107
8.04311e-111
5.44496e-114
7.07637e-117
1.2216e-120
2.40488e-124
4.6093e-128
1.68315e-129
1.34074e-132
1.70543e-136
1.07819e-140
1.05947
1.06046
1.00117
1.00109
1.01942
1
1.00033
0.482893
-1.71224e-17
1.4815e-15
3.3154e-17
1.02833e-18
8.53574e-20
5.31247e-22
1.30315e-25
9.17837e-30
2.92301e-33
1.40722e-36
5.30078e-40
2.24683e-43
1.03132e-46
4.15575e-50
4.17142e-53
2.25533e-56
7.24708e-60
4.58854e-63
8.6611e-67
7.06047e-69
3.77062e-72
2.5485e-76
1.50797e-78
1.2648e-81
2.61487e-85
6.93791e-89
3.12612e-91
5.51458e-95
2.25288e-98
3.34424e-101
1.72355e-103
8.30005e-107
1.33785e-110
2.6426e-113
8.87072e-117
9.2431e-120
1.45525e-122
5.74441e-126
7.19534e-130
3.75882e-133
2.78718e-136
6.25517e-139
1.01893
1.07471
1.07361
1.02333
1.00282
1.00651
1.00251
1
-1.42239e-16
5.28651e-15
1.89849e-16
4.88581e-18
6.10421e-19
8.40595e-21
5.13814e-24
2.95106e-28
6.82301e-32
2.89545e-35
1.25487e-38
5.74258e-42
2.21259e-45
1.66956e-48
4.58568e-52
2.00474e-55
1.24847e-58
5.90114e-62
4.47349e-65
5.42773e-68
4.60596e-71
5.34823e-74
6.79045e-77
5.39362e-81
3.70595e-83
8.7059e-87
8.52622e-91
5.31424e-94
4.45656e-96
1.31766e-99
9.48578e-104
1.01928e-105
4.66142e-109
1.52631e-112
4.57856e-115
3.9799e-118
9.91529e-122
3.4897e-125
2.75132e-127
1.25052e-130
1.10071e-133
2.61251e-137
1.14673
0.864502
1.02892
1.02805
0.958472
0.970877
1.00237
1.00027
-3.11221e-17
5.3487e-15
1.70845e-16
3.87485e-18
4.77736e-19
6.46654e-21
3.87756e-24
2.09012e-28
5.14765e-32
3.158e-35
1.18979e-38
1.34707e-41
3.09943e-45
1.19397e-48
4.17361e-52
6.94212e-55
3.05269e-58
6.6329e-61
2.52322e-64
3.97496e-68
3.32021e-70
4.34069e-73
6.50294e-76
3.30581e-79
2.06582e-83
9.2952e-87
2.42335e-89
6.42673e-93
1.56117e-96
7.05996e-99
8.81598e-103
1.39828e-105
2.21591e-108
3.82916e-111
1.73074e-114
4.92606e-118
1.19505e-121
1.7795e-124
1.55291e-128
4.60115e-132
4.26188e-135
4.11158e-139
1.08387
1.05226
0.932666
1.0172
1.00538
1.0005
1.0048
0.949884
-2.49467e-18
-1.87622e-18
1.23766e-17
9.94735e-19
8.18942e-20
4.92689e-22
1.15955e-25
8.24675e-30
2.62316e-33
1.12143e-36
4.86834e-40
2.09149e-43
1.60764e-46
4.30125e-50
2.55114e-53
8.41329e-57
6.5722e-60
2.1185e-63
5.692e-67
1.17486e-69
1.08287e-71
3.38172e-75
2.57066e-79
1.05576e-82
3.76958e-86
8.26343e-89
3.10896e-92
4.84208e-95
1.29029e-98
3.84194e-101
3.95717e-104
6.18951e-108
2.79009e-111
5.84643e-114
3.14032e-117
1.34999e-120
1.37318e-123
2.60171e-127
3.28606e-129
1.1085e-132
6.76684e-137
1.3376e-138
1.05989
0.979385
0.959077
1.01725
0.95002
1.00838
1.00202
0.232332
-6.84192e-18
-1.67544e-20
1.87003e-17
3.63394e-18
8.42841e-20
1.26057e-22
1.1698e-26
1.68571e-30
6.66321e-34
2.90072e-37
1.55394e-40
9.41498e-44
2.63908e-47
2.31172e-50
9.21745e-54
2.07734e-57
7.85042e-61
5.76318e-63
7.21018e-66
7.4355e-70
9.33821e-74
3.99933e-75
2.0059e-78
4.38485e-82
4.91002e-85
5.87689e-89
4.18769e-92
1.16855e-94
1.7472e-98
3.4241e-101
2.23844e-104
3.81008e-107
2.48719e-111
1.07456e-113
5.45113e-117
2.90809e-120
1.53132e-123
8.16543e-128
2.12805e-131
8.22228e-135
3.25334e-138
1.51853e-141
1.04245
1.05381
0.933973
1.02131
0.988022
1.00112
1.00012
-1.57524e-14
-1.48222e-17
-1.54432e-21
1.67632e-17
7.07536e-19
9.64912e-22
9.53155e-26
2.08701e-29
7.00787e-33
3.83524e-36
1.94293e-39
1.06368e-42
3.81197e-46
1.37949e-49
8.02934e-53
2.41712e-56
1.83151e-59
1.988e-61
4.24271e-65
2.72227e-69
1.00346e-72
5.33786e-76
2.42549e-79
2.80833e-80
2.97186e-83
1.45478e-87
1.73221e-91
9.63595e-94
2.90541e-97
1.78273e-100
2.58539e-104
4.31055e-108
6.00358e-110
9.47991e-113
1.37322e-115
3.2221e-119
5.86123e-123
5.51006e-126
7.06403e-130
5.58434e-132
1.01526e-134
1.18755e-137
5.56266e-142
1.04528
1.01187
1.02276
0.997626
0.983174
0.996741
1.00013
-1.97874e-15
-1.80511e-19
8.25536e-17
2.42034e-18
3.35453e-19
7.73421e-21
9.48988e-24
6.67456e-28
1.12354e-31
4.45523e-35
1.89155e-38
8.06253e-42
3.53623e-45
1.46434e-48
6.17908e-52
2.59415e-55
1.0925e-58
4.70981e-62
2.04812e-65
1.8884e-68
4.21608e-72
4.46272e-75
2.00668e-78
1.85074e-81
1.68421e-84
8.51389e-88
6.85892e-91
9.2561e-95
1.28019e-97
3.78792e-100
7.08611e-104
2.79115e-106
6.44716e-110
7.3283e-114
2.0859e-117
3.44736e-119
2.08276e-122
5.15382e-126
8.34078e-129
4.15646e-132
2.56442e-135
1.2184e-138
5.08897e-142
1.04893
1.05018
1.02276
0.837634
0.997391
1.0057
0.956596
1.10737e-12
2.34694e-14
4.93728e-16
1.07466e-17
1.21316e-18
4.6387e-20
2.61738e-22
1.53006e-25
2.66138e-29
1.36713e-32
1.04292e-35
7.80453e-39
5.68536e-42
4.12737e-45
2.99352e-48
2.16568e-51
1.56383e-54
1.12654e-57
8.09406e-61
5.80658e-64
4.15688e-67
2.96726e-70
2.11375e-73
1.50152e-76
1.06399e-79
7.52743e-83
5.31499e-86
3.74598e-89
2.63468e-92
1.84748e-95
1.29167e-98
9.01587e-102
6.28477e-105
4.37108e-108
3.03387e-111
2.10052e-114
1.451e-117
1.0004e-120
6.87834e-124
4.71947e-127
3.23351e-130
2.20998e-133
8.90775e-137
1.0474
1.02535
1.0378
1.02913
1.01409
1.00731
1.00181
1.35008e-10
5.28716e-15
4.84918e-15
2.20607e-15
9.72926e-17
3.22572e-19
8.27418e-23
1.60887e-26
8.93068e-30
6.51204e-33
4.59051e-36
3.23462e-39
2.22382e-42
1.56837e-45
1.0984e-48
8.19244e-52
6.04998e-55
3.8851e-58
2.6832e-61
1.89601e-64
1.32808e-67
9.1632e-71
6.46149e-74
4.42712e-77
3.06111e-80
2.19824e-83
1.55213e-86
1.0175e-89
6.96037e-93
4.77917e-96
3.28925e-99
2.24219e-102
1.52717e-105
1.04132e-108
7.07951e-112
4.83804e-115
3.25754e-118
2.19996e-121
1.48458e-124
1.01731e-127
6.74976e-131
4.51315e-134
1.79284e-137
1.03279
1.01363
1.00599
1.01663
1
1.00167
1.00161
3.70459e-07
3.9475e-14
4.2018e-16
3.6756e-16
1.18201e-16
8.83956e-18
7.52243e-20
4.60214e-23
5.47947e-27
2.56827e-30
1.93995e-33
1.41032e-36
1.00155e-39
7.1015e-43
5.03021e-46
3.55457e-49
2.50712e-52
1.76351e-55
1.23747e-58
8.6713e-62
6.06019e-65
4.22531e-68
2.94421e-71
2.04719e-74
1.4205e-77
9.84345e-81
6.80099e-84
4.68295e-87
3.22153e-90
2.21218e-93
1.51533e-96
1.0363e-99
7.06876e-103
4.80922e-106
3.26656e-109
2.21477e-112
1.49911e-115
1.01334e-118
6.83498e-122
4.59796e-125
3.08714e-128
2.06777e-131
8.19304e-135
1.07096
1.02951
1.00831
1
0.942932
0.991368
1.00031
0.484075
2.15611e-11
4.30063e-17
3.90383e-17
1.07206e-17
1.32581e-18
2.7978e-20
5.60713e-23
1.20147e-26
3.00077e-30
2.06977e-33
1.56001e-36
1.13504e-39
8.17087e-43
5.87306e-46
4.21052e-49
3.02217e-52
2.15533e-55
1.53585e-58
1.09263e-61
7.76712e-65
5.52841e-68
3.88902e-71
2.74026e-74
1.92864e-77
1.35322e-80
9.47639e-84
6.63222e-87
4.62315e-90
3.2182e-93
2.23601e-96
1.54861e-99
1.07055e-102
7.38897e-106
5.10496e-109
3.50787e-112
2.40894e-115
1.64269e-118
1.12105e-121
7.63517e-125
5.19162e-128
3.5214e-131
1.41148e-134
1
1.00319
1.08759
1.10774
1.0015
1.01694
1.00236
0.994798
1.03164e-11
1.20104e-15
1.39552e-15
1.09309e-16
2.07327e-17
9.22996e-19
3.93786e-21
1.25546e-24
2.01e-28
1.2129e-31
9.14162e-35
6.63477e-38
4.74463e-41
3.38779e-44
2.41406e-47
1.71811e-50
1.21982e-53
8.63947e-57
6.11036e-60
4.31245e-63
3.03527e-66
2.13235e-69
1.49506e-72
1.04539e-75
7.30171e-79
5.08598e-82
3.5347e-85
2.45318e-88
1.69853e-91
1.17285e-94
8.08579e-98
5.56554e-101
3.82377e-104
2.62276e-107
1.79428e-110
1.22436e-113
8.34094e-117
5.67169e-120
3.84718e-123
2.60538e-126
1.76087e-129
7.02843e-133
1.00223
1.21111
1
1.00476
0.999134
0.985903
1.00231
1.0002
4.36845e-11
1.06245e-15
1.30514e-15
1.99025e-16
4.76316e-17
2.33281e-18
1.02263e-20
3.22967e-24
5.04277e-28
3.01369e-31
2.26938e-34
1.64625e-37
1.17546e-40
8.382e-44
5.96739e-47
4.24074e-50
3.00696e-53
2.12697e-56
1.50277e-59
1.05944e-62
7.45114e-66
5.23084e-69
3.66123e-72
2.55588e-75
1.78336e-78
1.24172e-81
8.62104e-85
5.9758e-88
4.13319e-91
2.85257e-94
1.96592e-97
1.35181e-100
9.27559e-104
6.35457e-107
4.34316e-110
2.96058e-113
2.01465e-116
1.36783e-119
9.26439e-123
6.26915e-126
4.23654e-129
1.69116e-132
1.00599
1.16207
0.91632
1.02583
1.00272
1.00031
1.00535
0.943936
2.14094e-12
3.40784e-16
4.06629e-16
1.02527e-17
8.12813e-19
1.71304e-20
3.52184e-23
7.6367e-27
1.94951e-30
1.33556e-33
1.00137e-36
7.26781e-40
5.27344e-43
3.79098e-46
2.69123e-49
1.93044e-52
1.3784e-55
9.7844e-59
6.94678e-62
4.93265e-65
3.49711e-68
2.58452e-71
1.75592e-74
1.22562e-77
8.61714e-81
6.04189e-84
4.29595e-87
2.95777e-90
2.05323e-93
1.4396e-96
1.00246e-99
6.85664e-103
4.72295e-106
3.25625e-109
2.23723e-112
1.53717e-115
1.04944e-118
7.15985e-122
4.98277e-125
3.33111e-128
2.25851e-131
1.01864e-134
1.04817
1.11575
1.17199
1.07076
1.0227
1.01746
1.00266
0.241459
1.31685e-13
6.08167e-16
4.50472e-16
1.44243e-16
1.09306e-17
9.7042e-20
6.36929e-23
7.74535e-27
3.51709e-30
2.65674e-33
1.93689e-36
1.37791e-39
9.78482e-43
6.93848e-46
4.90791e-49
3.4657e-52
2.44164e-55
1.7161e-58
1.20372e-61
8.4229e-65
5.8766e-68
4.09921e-71
2.85492e-74
1.98306e-77
1.37436e-80
9.50211e-84
6.55386e-87
4.51415e-90
3.10231e-93
2.12699e-96
1.45644e-99
9.94983e-103
6.77869e-106
4.61038e-109
3.1292e-112
2.11886e-115
1.43261e-118
9.66384e-122
6.50123e-125
4.36741e-128
2.93068e-131
1.16315e-134
1.07307
1.0344
1.34825
1.09441
0.894574
1.00065
1.00013
4.47619e-08
1.8945e-14
2.88256e-16
1.79753e-15
1.75907e-16
1.07209e-18
3.44322e-22
4.70965e-26
2.51753e-29
1.85134e-32
1.30444e-35
9.07377e-39
6.32732e-42
4.47053e-45
3.1486e-48
2.2185e-51
1.55069e-54
1.1274e-57
7.77329e-61
5.32287e-64
3.71093e-67
2.59474e-70
1.78977e-73
1.27101e-76
8.62622e-80
5.99954e-83
4.0775e-86
2.79207e-89
1.92448e-92
1.31626e-95
8.96869e-99
6.10432e-102
4.15849e-105
2.81969e-108
1.91945e-111
1.30518e-114
8.73304e-118
5.91959e-121
4.08787e-124
2.6773e-127
1.77535e-130
1.18581e-133
4.76055e-137
1.04932
1.01715
1.00422
1.10526
0.955303
0.996857
1.00048
5.91899e-11
1.43219e-16
2.60234e-16
1.54007e-17
6.84225e-19
1.5299e-20
6.164e-23
3.07495e-26
6.38972e-30
3.63185e-33
2.7941e-36
2.10303e-39
1.54409e-42
1.12948e-45
8.25085e-49
6.01187e-52
4.37295e-55
3.17248e-58
2.29561e-61
1.65763e-64
1.19431e-67
8.58784e-71
6.15733e-74
4.4043e-77
3.1409e-80
2.23474e-83
1.58673e-86
1.12384e-89
7.94852e-93
5.60619e-96
3.94265e-99
2.7676e-102
1.93864e-105
1.35487e-108
9.45109e-112
6.57618e-115
4.56367e-118
3.16115e-121
2.18467e-124
1.50611e-127
1.03696e-130
7.11887e-134
2.8795e-137
1.02512
1.03108
0.993962
0.701024
0.927072
1.00495
0.957615
3.59553e-13
4.69988e-15
5.74676e-17
1.13253e-18
1.58284e-19
2.45305e-21
1.82022e-24
1.13457e-28
2.68938e-32
1.04576e-35
4.55668e-39
2.05928e-42
1.36477e-45
4.51189e-49
2.06003e-52
1.08939e-55
3.33384e-59
4.63871e-62
4.99244e-65
8.73442e-69
3.48318e-72
8.46277e-75
1.56284e-78
4.2357e-81
7.51194e-85
1.18916e-87
1.51091e-90
5.82071e-94
2.48776e-97
3.50452e-100
1.98823e-103
1.61233e-107
3.54496e-109
2.13202e-112
1.63232e-116
5.44132e-119
1.08219e-122
5.03601e-126
5.21098e-128
1.58123e-131
5.94683e-135
6.44226e-138
1.22658e-140
1.01802
1.07609
1.04108
0.985167
1.0719
0.9951
1.00093
5.36035e-11
-3.00403e-19
-1.6402e-23
1.93179e-17
3.68431e-19
2.74037e-22
7.98753e-26
2.00561e-29
5.97125e-33
2.37318e-36
1.18601e-39
5.56749e-43
2.06901e-46
1.28085e-49
5.14555e-53
3.43258e-56
3.62368e-59
1.03088e-62
4.2591e-66
5.66413e-69
9.75221e-73
2.78894e-75
6.60325e-79
2.26577e-81
1.91434e-84
1.20559e-87
4.32748e-91
2.88457e-94
1.52379e-97
2.0049e-101
8.91414e-105
4.26839e-106
4.34673e-109
4.27336e-113
9.08956e-117
5.78904e-120
3.60517e-122
5.3888e-126
8.31865e-130
2.12104e-132
2.07825e-136
2.90811e-139
1.58688e-143
1.03177
1.01908
0.950859
1.04298
1.08887
1.00293
1.00163
2.88037e-07
-1.71455e-18
-1.69966e-21
1.91637e-17
3.80663e-18
9.1189e-20
1.3712e-22
1.23955e-26
1.76738e-30
7.05259e-34
3.66368e-37
1.74061e-40
5.62425e-44
4.19986e-47
1.09651e-50
1.08969e-53
3.64879e-57
4.24672e-60
7.32048e-64
2.00063e-66
4.28671e-70
5.29703e-73
1.16629e-75
1.19277e-79
1.63252e-83
2.30209e-85
1.06482e-88
2.42001e-92
3.37592e-95
2.54459e-98
8.29487e-102
7.28176e-105
2.03553e-107
2.24588e-110
3.34377e-114
9.52238e-118
2.38988e-120
4.39379e-124
4.82623e-128
1.80982e-129
1.12578e-132
2.06066e-136
3.85882e-139
1.01498
1.03312
0.980769
0.989795
1
0.977318
1.00041
0.483629
9.58399e-12
1.53416e-15
3.35098e-17
1.05949e-18
8.83936e-20
5.53159e-22
1.36396e-25
9.56145e-30
3.04067e-33
1.30152e-36
5.46539e-40
2.39046e-43
1.0165e-46
4.20445e-50
2.40943e-53
2.12392e-56
5.80337e-60
3.79297e-63
8.06567e-67
1.22526e-68
1.08126e-71
7.33947e-76
1.30729e-78
1.01703e-81
2.42489e-85
5.63279e-89
9.95362e-92
2.28675e-95
2.19573e-98
3.39116e-101
2.79727e-105
5.77306e-107
4.97242e-110
2.22651e-113
2.78544e-116
1.49264e-119
1.36961e-122
5.48113e-126
3.21933e-129
2.53005e-133
6.2699e-137
2.52032e-140
1.01795
1.11905
0.841952
0.823928
0.991359
1.02237
1.00266
0.996136
3.72526e-12
5.24188e-15
1.84338e-16
5.04297e-18
6.38072e-19
8.84552e-21
5.4319e-24
2.96321e-28
7.11596e-32
2.94081e-35
1.50197e-38
5.57117e-42
2.21752e-45
1.08477e-48
5.17993e-52
2.80842e-55
1.78644e-58
2.58524e-61
2.96498e-65
7.51922e-69
1.25601e-71
3.8059e-74
4.79108e-77
2.8487e-81
1.84942e-83
5.74667e-87
7.5568e-90
6.16286e-94
3.44752e-96
8.95393e-100
7.8876e-102
4.00895e-105
3.1163e-109
1.17524e-111
5.86164e-115
2.13829e-118
1.00659e-121
2.58403e-125
4.58626e-127
2.08543e-130
6.93666e-134
1.51428e-136
1.0459
1.13435
1.06161
1.00411
1.03509
0.99656
1.00255
1.0003
1.89452e-11
5.29009e-15
1.68594e-16
3.95582e-18
4.90285e-19
6.66791e-21
4.00719e-24
2.16965e-28
5.3372e-32
2.32636e-35
1.00977e-38
2.3409e-41
4.81922e-45
3.93348e-48
1.319e-51
3.35767e-55
1.80663e-58
3.92471e-61
8.13541e-65
1.08517e-68
3.49386e-72
1.36351e-73
2.71511e-76
4.98951e-79
6.76923e-83
2.31542e-86
3.16057e-90
7.33842e-93
2.53866e-96
7.16512e-99
7.28071e-103
2.51263e-105
9.47079e-109
5.10939e-112
1.1591e-114
5.25681e-118
2.75392e-121
1.77113e-125
3.587e-128
2.34123e-130
1.17144e-133
6.7567e-138
1.06503
1.06414
0.867868
1.02206
1.00022
1.00187
1.00548
0.944349
8.3691e-13
-1.88973e-18
1.21089e-17
9.66453e-19
7.94066e-20
4.77541e-22
1.12248e-25
7.97964e-30
2.53845e-33
1.10998e-36
4.72628e-40
2.06001e-43
1.59805e-46
4.51638e-50
1.94371e-53
9.55994e-57
4.86209e-60
2.76851e-63
7.41101e-67
2.57682e-70
7.72175e-72
6.69171e-75
4.23157e-79
7.34227e-83
2.80248e-86
4.11471e-89
1.64366e-91
5.48376e-95
7.48888e-99
2.83894e-101
5.33567e-105
7.21709e-109
2.64179e-111
1.43515e-114
4.11755e-117
1.91169e-120
1.52601e-123
8.62269e-128
1.9418e-131
7.51706e-135
5.72304e-138
2.54577e-138
0.98137
1.08441
0.97469
1.07429
1.15091
1.00362
1.00255
0.24065
-6.73166e-18
-1.68979e-20
1.87674e-17
3.65646e-18
8.52154e-20
1.2838e-22
1.20248e-26
1.72797e-30
6.86691e-34
2.95627e-37
1.84742e-40
7.53292e-44
2.82033e-47
2.2119e-50
1.44671e-53
2.23338e-57
1.0602e-59
1.34064e-63
5.12998e-66
7.22969e-69
5.57569e-73
2.66646e-76
1.45353e-78
1.7173e-82
3.5205e-85
1.82367e-88
2.72494e-92
3.45058e-95
2.05468e-98
1.03757e-101
1.78435e-104
3.721e-107
1.12174e-110
2.1552e-113
6.23395e-117
2.77267e-120
1.24954e-123
9.20472e-128
2.68046e-131
1.04508e-134
4.14768e-138
1.13098e-141
1.0369
1.04446
0.830453
0.994353
1.02833
1.00635
1.00016
2.8161e-08
-1.45573e-17
-1.52326e-21
1.83028e-17
7.75599e-19
1.06058e-21
9.50656e-26
1.98548e-29
6.80739e-33
3.50595e-36
1.39789e-39
7.83233e-43
3.30303e-46
1.14962e-49
8.09431e-53
2.31168e-56
1.7543e-59
5.08464e-63
3.13254e-65
7.63895e-69
8.14876e-73
4.59364e-76
1.30235e-77
5.35731e-81
1.28936e-84
4.87678e-87
2.15229e-90
1.00619e-93
4.86125e-97
2.04876e-100
1.51135e-103
9.00132e-108
8.38216e-110
1.29948e-113
1.16012e-117
1.10921e-119
2.60849e-122
5.93905e-126
5.1258e-130
2.33747e-132
2.00846e-135
1.37897e-137
2.0833e-141
1.04528
1.03922
1.02653
1.00864
0.888229
1
1.00042
2.64894e-11
-1.88882e-19
8.29831e-17
1.94061e-18
2.39459e-19
5.36946e-21
6.52798e-24
4.60809e-28
7.82558e-32
3.10959e-35
1.33027e-38
5.64011e-42
2.3898e-45
1.03056e-48
4.38868e-52
1.81787e-55
7.69269e-59
3.88435e-62
1.6468e-65
6.15088e-69
2.47498e-72
8.81108e-75
2.6058e-78
3.24562e-82
2.8696e-84
1.07559e-87
1.21209e-91
6.98513e-95
1.71624e-97
1.1287e-100
1.59293e-104
2.81748e-106
1.77529e-109
4.685e-113
8.1245e-116
4.38062e-119
5.96341e-123
7.41561e-126
1.10893e-128
6.78454e-132
4.40008e-135
1.82702e-138
1.20004e-142
1.00089
1.00732
1.006
1.00399
1.00123
1.00516
1.00577
1.00491
1.00178
1.00271
1.00813
1.00457
1.00133
1.00271
1.00186
1
1.00217
1.00157
1.00201
1
1.00305
1.00164
1.00512
1.00333
0.965466
1.0015
1.00678
1.00233
1.00359
0.98528
1.00072
1.01429
1.00324
0.937766
1.00029
1.00105
1
1.00641
0.985902
1.00084
0.955522
1.00627
1.0064
1.02402
1.00752
1.00186
1.00619
1.02198
1.00774
1.00665
1.00525
1.00143
1.01529
1.00622
0.99898
1.00097
1.00024
0.999523
0.999953
1.00005
1.00015
0.999331
0.999933
1.00076
1.0295
1.00057
0.999629
1.00122
1.02752
1.0011
1.00162
1.00377
1.00607
1.0063
1.00136
1.00559
1.00582
1.00478
1.00146
1.00326
0.998749
1.00472
1.00332
1.00269
1.00243
0.999643
1.00361
1.00619
1.00209
0.988308
1.00339
1.00182
1.00543
1.00238
0.98248
1.00153
1.00158
1.00229
1.00347
0.995867
1.00036
1.02181
1.00322
0.954259
1.00044
1.00114
0.972388
1.00642
0.99347
1.0009
0.955043
1.00637
1.00728
1.02189
1.0079
1.00037
1.00782
1.02189
1.0076
1.00651
0.97678
1.00117
1.00258
1.00619
0.999882
1.00095
1.00024
1
0.999985
1.0113
1.00002
0.993906
0.999598
1.00155
1.0231
1.00147
1
1.00107
1.01761
1.00101
1.00161
1.00558
1.00609
1.00128
1.00063
1.00477
1.00643
1.00509
1.00488
1.00316
0.99633
1.00488
1.00727
1.00287
1.0024
0.989835
1.0036
0.998719
1.00195
0.991144
1.00263
1.0018
1.00183
1.00221
0.982299
1.00162
1.00175
1.00242
1.00342
0.954329
1.00062
1.01959
1.00333
0.975265
1.00111
1.0011
0.94198
1.00644
0.996809
1.0011
0.939344
1.00646
1.0077
1.02404
1.00768
1.0019
1.00888
1.0241
1.00775
1.0065
0.982382
1.00133
1.00408
1.00664
0.962333
1.00136
1.00023
0.991955
0.999642
1.04849
1.00017
0.998581
0.999658
1.00121
1.01376
1.00133
1.00002
1.00055
1.01104
1.00063
1.00229
1.0268
1.00412
1.00633
1.00084
1.02482
1.0006
0.998696
1.00583
0.991274
1.0009
0.990661
0.997935
1.00558
-3.39472e-18
1.00017
1.08402e-22
0.958803
3.08273e-10
1.00113
2.74106e-09
1.00762
0.975672
0.9837
0.999081
1.00446
1.00793
0.990188
1.01232
1.01563
1.01332
1.01419
1.01563
1.0105
1.0112
8.63882e-22
1.00129
0.0136118
1.00231
5.88889e-08
1.00129
0.0201009
0.9613
1.0025
0.96972
1.02404
0.98012
1.01094
0.95659
1.00118
1.00611
0.996973
1.00096
1.00625
0.995951
1.00166
0.128948
1.00034
0.897189
1.00203
0.136302
1.00032
0.895613
0.788999
0.98401
1.00812
0.960995
0.922562
0.947247
0.999393
0.999098
0.999493
0.915061
0.994497
1
0.919051
1.00002
1
1.00243
1.00046
1.00044
1.00003
1.00231
1.00111
1.00744
0.999723
0.99308
1.00086
1.14276
0.999999
0.872588
1.00295
1.00401
1.00164
1.00432
1.00369
1.00003
1.0028
1.00133
1.00198
1.00109
1.00274
1.00193
1.00212
1.00202
0.963764
0.992022
0.790332
0.998107
0.915503
0.999956
0.833452
1.00111
1
0.998255
0.973109
1.00001
0.998507
1.00131
1.00117
1.00438
1.00183
1.00272
1.00212
1.00426
1.00247
1
0.996078
0.940273
1.00603
0.978076
0.98978
0.980005
1.00733
1.00593
1.02387
1.00136
1.00632
1.0307
1.00667
1.0009
1.0038
1
1.00521
1.00168
1.00389
1.00013
1.01742
0.999851
1.01377
0.985468
1.02194
0.994887
0.99848
0.987506
1.01109
0.997812
1.00948
1.01169
0.986063
0.988071
0.936227
1.00074
0.227254
1.00273
0.932857
1.0007
0.235226
0.997311
1.00741
1.02153
0.891904
1.0015
1.03042
1.01941
0.984306
0.999069
0.947187
0.999912
0.999767
0.962959
0.988908
0.0588383
1
-1.29727e-19
1.00035
0.0651922
1.00002
2.79911e-07
0.960627
1.00853
1.04091
0.970146
0.984483
1.01136
1.02981
1.00499
1.00122
1.00475
0.99842
1.0009
1.00428
1.00466
-8.18556e-17
0.980135
-1.35086e-16
1.0006
2.38761e-08
0.971502
9.42276e-10
0.992167
1.01972
0.999995
1.02317
0.991689
0.98535
0.989869
1.00042
1.00524
0.987541
1.0065
1.00003
0.987404
1.00506
6.1177e-10
1.00132
5.30693e-09
0.957175
6.35335e-10
1.00105
5.25654e-09
1.00635
1.00652
0.990123
0.988832
1.00292
1.03981
0.986906
1.00338
1.01329
1.00165
1.00606
1.00418
1.01236
1.0004
9.55954e-08
1.00184
0.0209399
1.00129
9.5538e-08
1.00136
0.0208556
1.00911
0.984067
0.939272
1.17322
0.962406
1.07119
0.919266
1.00062
1.00543
0.996798
1.00225
1.00075
1.00511
0.998108
0.135937
1.00041
0.896062
1.00198
0.137135
1.00056
0.896133
0.844706
1.00916
0.999999
0.998326
0.846571
1.01049
0.984147
0.993253
1
0.990961
0.990114
0.988559
1
0.98391
1.00009
1.0021
1.00148
1.00058
1.00001
1.00221
1.00101
1.26488
1.0145
0.935102
0.824613
1.24449
1.08267
0.978017
1.00226
1.00376
1.0055
1.01763
1.00272
1.0034
1.00718
1.00245
1.00206
1.00185
1.00293
1.00227
1.00209
1.0019
0.876262
0.999916
0.817903
1.05399
1.00009
1
0.815471
1.0007
1
0.996609
0.991733
1.00078
1
0.996909
1.00211
1.00421
1.0025
1.0029
1.00176
1.00411
1.00251
0.9895
1.03241
1.00137
1.00005
0.963779
0.99238
0.994095
1.0077
1.00679
1.00941
1.00005
1.00755
1.00704
1.01136
1.00215
1.00379
1.00024
1.00536
1.00163
1.00383
1.00014
1.05245
1.01611
0.920334
1.10878
1.00144
1.08797
0.921601
0.992515
1.01138
0.963924
1.02311
0.987082
1.01174
0.915346
0.932603
1.00092
0.236523
1.0029
0.932509
1.0007
0.235845
1.0217
1.0326
1.01164
1.01412
1.06771
1.02719
1.00963
0.994902
0.998311
0.994247
1.00459
0.987441
0.999984
0.994819
0.0659666
1.00027
4.50675e-07
1.00026
0.0658782
1
4.61701e-07
0.965414
0.990225
0.987699
0.836772
0.985778
0.981108
0.970144
1.00566
1.00138
1.00397
0.989964
1.00545
1.00019
1.01467
4.00826e-08
0.970519
1.84538e-09
1.00058
4.00762e-08
0.970663
1.86789e-09
0.994428
0.907307
0.972588
1.04502
0.963353
1.01887
0.931613
1.00031
1.00372
0.985919
1.00431
1.00041
0.985582
1.00345
3.30675e-10
1.00121
2.75076e-09
0.969114
-3.47912e-18
1.00003
-6.76311e-26
0.991496
0.979277
1.00145
1.06579
1.00102
1.04912
1.00466
1.00112
1.00693
0.979709
0.996079
1.00177
1.00459
0.967853
5.90198e-08
1.00189
0.0201942
1.00104
-5.42392e-24
1.0013
0.0135261
1.02092
0.943417
1.03395
0.989212
0.95835
1.07549
0.939855
1.00005
1.00406
1.00568
0.986003
1.00057
1.00253
0.999492
0.135245
1.00037
0.895204
1.00117
0.128931
1.00058
0.897074
0.944912
1.01499
1.00394
1.00821
0.925748
1.02053
0.990585
0.998719
1
0.946536
0.967339
0.991986
0.999823
0.967929
1.00011
1.00191
1.00151
1.00064
1
1.00196
1.00045
1.09001
1.16169
0.999206
1.01832
1.00136
1.11729
1.09325
1.00026
1.0051
1.02728
1.0559
0.999944
1.0055
1.0832
1.00216
1.00209
1.00211
1.00287
1.00135
1.00197
1.00116
1.21024
0.997401
0.841651
1.00091
1.0017
0.986489
0.878138
1.00141
0.999252
0.995638
1.00918
1.0015
0.999359
1.00288
1.00194
1.00424
1.00244
1.00276
1.00131
1.00422
1.00194
0.945852
1.01317
0.997951
1.00069
0.945189
0.994583
0.998009
1.00845
1.00745
1.01386
0.999156
1.00843
1.00761
1.01463
1.00212
1.00368
1.00023
1.00488
1.00094
1.0038
1
1.00176
1.06607
0.99809
1.08714
1.00992
1.09232
0.973145
0.999967
1.0106
0.990523
1.00576
0.994337
1.00978
0.960229
0.933012
1.00093
0.235814
1.0021
0.93625
1.00068
0.227539
1.09205
1.01475
1.00871
0.927777
1.11976
1.00806
1.00446
0.998804
0.999793
1.00246
1.02232
0.999239
1.00001
1.01293
0.0652731
1.00016
3.01116e-07
1.00011
0.0588067
1
-1.26145e-19
0.995658
1.0042
0.946947
0.990703
1
0.98016
0.959036
1.00361
1.00084
1.00023
0.999998
1.00382
1.001
1.00012
2.38773e-08
0.971357
9.63804e-10
1.00009
-7.95069e-17
0.979753
-1.37446e-16
1.00279
1.00338
1.00059
1.00094
1.00099
1.00293
1.00351
0.999518
0.971189
1.01153
1.00606
0.985651
1.01145
1.00004
1.00293
1.00229
1.00904
1.00583
1.00239
1.00878
1.00374
0.999149
1.00214
1.00553
0.988755
0.98832
0.999767
1.00569
1.00293
1.00148
1.00344
1.00125
1.00139
1.0028
1.00354
0.999727
1.00492
0.986895
1.01084
0.986745
1.0115
0.999821
1.00305
1.00588
1.00239
1.00841
1.00263
1.00897
1.00265
1.00614
1.00921
1.00295
1.00468
1.00887
1.00339
1.00642
1.00338
0.99633
1.00627
1.00182
0.99957
1.00628
1.00554
1.00524
1.00294
1.00433
1.00273
1.00326
1.00433
1.00566
1.00807
1.01064
1.0144
1.00239
1.01537
1.00339
1.00538
1.00625
1.00486
1.00884
1.00366
1.00909
1.00379
1.00523
1.00363
1.00108
0.997083
1.00636
0.997543
1.00641
1.00382
1.0054
1.00322
1.00351
1.00439
1.00359
1.00469
1.00517
1.00209
1.00305
1.00198
1.00188
1.00288
1.00198
1.00237
0.991576
0.973605
0.999624
1
0.986926
0.999611
0.99385
0.999857
1.00433
1.00051
1.00306
1.00304
1.00034
1.00002
1.0007
1.0013
1.0059
0.99616
1.00618
0.99886
1.00071
1.00238
1.00246
1.00323
1.00195
1.0033
1.00239
1.0021
0.997246
1.00005
0.999841
0.999238
0.999469
0.999267
0.998991
0.999595
1.00317
1.00431
1.00027
1.00296
1.00047
0.999846
1.00002
1
1.00102
1.0015
1.00007
1.00094
1.00021
0.993456
1.00016
1.00139
1.00655
0.996847
1.00084
0.992608
1.00002
1.00156
1.00221
1.00246
1.00126
1.00202
1.00017
0.995127
0.984444
1.00002
0.957455
0.999976
0.926558
0.99178
1.00017
1.00173
1.00004
1.0011
1.0002
1.00132
1.00004
0.995485
1.00751
0.992044
1.00018
0.991544
1.00039
0.99554
1.00008
1.00243
1.00112
1.00206
1.00142
1.00212
1
1.00105
1.00333
1.00237
1.00335
1.00319
1.0022
1.00103
0.998981
0.990142
0.995221
0.978062
0.986823
0.997215
0.999752
1
1.00122
0.999999
1.00033
1.00093
1
1.0004
1.00291
1.01143
1.00366
1.00524
1.00409
1.00145
1.00308
1.0011
1.00365
1.00302
1.0021
1.00324
1.00244
1.00112
0.996965
0.926917
0.988625
0.991513
0.986385
0.990268
0.998347
1.00006
1.00043
1.00078
1
1.00117
1
0.999826
1.0019
1.00008
1.00278
1.00088
1.00009
1.00265
1.00213
1.0095
1.00096
1.00021
0.96801
1.0008
1.00007
1.00964
1.0064
1.00563
1.00623
1.00628
1.00569
1.0064
1.00646
1.00106
0.977071
1
0.997855
1
0.998572
1.00074
1.00195
1.00119
1.0001
1.00253
1.00023
1.00276
1.00177
1.00952
0.968339
1.00031
1
1.00168
1.00037
1.00928
1.00657
1.00645
1.00575
1.0062
1.00602
1.00666
1.00631
1.00784
1.00909
1.00788
1.00526
1.00649
1.00786
1.00824
1.00977
1.02103
1.0224
1.02315
1.02871
1.02352
1.00975
1.00772
1.00611
1.01375
1.00769
1.0061
1.01378
1.00774
1.00755
1.00165
1.00667
1.01179
1.00664
1.00738
1.00732
1.008
1.00558
1.00689
1.00777
1.00654
1.00785
1.00788
1.0111
1.02276
1.02787
1.02345
1.02483
1.02391
1.01252
1.00815
1.00767
1.00644
1.01428
1.00662
1.01387
1.00831
1.00036
1.00888
1.00482
1.00635
1.009
1.00448
1.00006
0.989409
1.01379
0.999582
1.008
1.01477
0.998198
0.997784
0.998992
1.00262
1.00115
1.00114
1.00246
1.00055
0.999189
0.988817
1.01255
1.01272
0.966916
1.01181
0.970123
0.98797
1.00093
1.00665
1.00916
1.00412
1.00925
1.00452
1.00109
0.977615
1.00688
0.994127
0.996674
1.00304
0.999859
0.977478
0.999671
1.00125
1.00231
0.999896
1.00252
1.00033
1.00013
0.998418
1.00001
0.999976
1.00021
1
0.999955
0.999976
0.940864
0.957432
0.993508
0.99827
0.950349
0.989142
0.906262
0.974737
1
0.998758
0.999962
0.996043
0.997228
0.970052
0.986178
1.00072
0.997707
0.981243
0.999951
0.988829
0.983573
0.999556
1.00042
0.999817
0.999734
1.00016
0.999978
0.998268
0.984669
0.998335
0.908575
0.9822
0.97186
0.991874
0.980367
0.990466
1.00003
0.993218
0.997023
0.99519
0.997994
0.991591
1.00296
1.00162
1.00063
1.00107
1.00154
1.00086
1.0032
1.01111
1.04394
1.01101
1.0299
1.04442
1.00902
1.01003
1.00377
1.00124
1.0033
1.00086
1.00147
1.00396
1.00328
1.00608
0.994992
1.00228
1.00466
1.00095
1.00361
1.0053
1.00307
1.00142
1.002
1.00096
1.00181
1.00123
1.00273
1.01124
1.02807
1.0339
1.00994
1.03775
1.01161
1.01042
1.00378
1.00128
1.00148
1.00328
1.00183
1.00371
1.00335
1.00266
1.00354
1.00172
1.00144
1.00291
1.0014
1.00322
1.00001
0.992086
1.01098
1.00512
0.999393
0.985207
1.0107
1.00265
1.0027
1.00858
1.00575
1.00269
1.00235
1.00825
1.00073
1.0066
1.00431
0.985793
0.985671
1.00044
1.00464
1.00266
1.0017
1.00289
1.00127
1.00173
1.00226
1.00314
1.00044
1.00574
0.984682
1.0102
0.984672
1.01034
1.00038
1.00279
1.00612
1.00228
1.00839
1.00268
1.00831
1.00249
1.0041
1.00893
1.00401
1.0046
1.00468
1.00878
1.00371
1.00225
0.99852
1.0061
1.00174
1.00253
0.997205
1.00571
1.00419
1.00376
1.00495
1.0027
1.00475
1.0035
1.00477
1.0028
1.00049
1.009
0.995147
1.01065
1
1.00213
1.00404
1.00494
1.00762
1.00353
1.00842
1.00394
1.004
1.00206
1.00222
0.99471
1.00563
0.996055
1.00566
1.00153
1.00379
1.00318
1.00301
1.00489
1.00348
1.00521
1.00329
1.00199
1.0035
1.00254
1.00213
1.00231
1.00335
1.00207
0.996431
0.982552
1.00001
0.994537
0.997334
0.942519
0.999718
1
1.005
1.00054
1.00325
1
1.00169
1.00031
1.0005