/*--------------------------------*- C++ -*----------------------------------*\
| =========                 |                                                 |
| \\      /  F ield         | OpenFOAM: The Open Source CFD Toolbox           |
|  \\    /   O peration     | Version:  5.0                                   |
|   \\  /    A nd           | Web:      www.OpenFOAM.org                      |
|    \\/     M anipulation  |                                                 |
\*---------------------------------------------------------------------------*/
FoamFile
{
    version     2.0;
    format      ascii;
    class       volScalarField;
    location    "5";
    object      p_rgh;
}
// * * * * * * * * * * * * * * * * * * * * * * * * * * * * * * * * * * * * * //

dimensions      [1 -1 -2 0 0 0 0];

internalField   nonuniform List<scalar> 
9655
(
91.5245
93.042
93.549
111.648
100.237
97.2293
96.7365
93.8492
90.2685
87.7257
85.1382
82.5959
80.0789
77.6086
75.1607
72.744
70.3427
67.9791
65.636
63.3218
61.0091
58.7198
56.4617
54.1966
51.9556
49.7372
47.5223
45.3074
43.1109
40.9413
38.7679
36.6197
34.5027
32.3749
30.2415
28.1401
26.0919
24.08
22.0763
20.0662
18.0845
16.1481
14.215
12.2517
10.3181
8.43261
6.54933
4.6598
2.79167
0.933219
95.4941
93.6589
93.4723
98.7259
100.838
98.9174
97.0636
93.8527
90.2304
87.6891
85.115
82.5771
80.0876
77.6109
75.1552
72.7441
70.3401
67.9916
65.6574
63.3234
61.0165
58.7243
56.4539
54.1983
51.9477
49.721
47.5135
45.3101
43.1195
40.945
38.7838
36.6344
34.499
32.3681
30.2452
28.1468
26.0877
24.0639
22.0577
20.0652
18.0895
16.1509
14.2166
12.2684
10.3246
8.42133
6.53477
4.65625
2.79049
0.932747
100.829
97.16
88.7371
116.21
104.271
97.6398
97.0452
94.3064
90.1805
87.6014
85.0704
82.5333
80.0465
77.5936
75.1503
72.7278
70.3503
68.0101
65.6721
63.3199
61.0136
58.7259
56.4463
54.1927
51.9491
49.7172
47.5028
45.3164
43.1296
40.9462
38.7877
36.6332
34.4789
32.355
30.2528
28.1614
26.0879
24.0546
22.0545
20.0666
18.0998
16.1506
14.2076
12.2687
10.3353
8.42023
6.53326
4.65927
2.79591
0.933127
112.843
102.998
102.622
112.83
109.093
98.451
96.0645
95.0123
90.7863
87.3736
84.9993
82.5135
80.0258
77.5723
75.1432
72.7288
70.3463
67.9982
65.6491
63.3231
61.0264
58.7261
56.451
54.1961
51.9636
49.7284
47.5021
45.3223
43.1271
40.9371
38.7877
36.6262
34.4724
32.3496
30.2602
28.1779
26.0938
24.0503
22.0548
20.0729
18.1038
16.1378
14.1853
12.2611
10.3437
8.42382
6.53403
4.66686
2.80203
0.928455
112.313
88.7702
105.458
86.2512
88.6605
91.5323
94.7082
95.185
90.6365
87.3076
84.9693
82.473
80.0178
77.5638
75.1458
72.7338
70.3586
67.9906
65.6285
63.3272
61.0296
58.7251
56.4559
54.1991
51.971
49.7429
47.5116
45.3168
43.1115
40.9284
38.7821
36.6204
34.4697
32.3482
30.2611
28.187
26.1041
24.0557
22.0599
20.0839
18.1032
16.1226
14.1669
12.2512
10.3414
8.42571
6.54026
4.68135
2.81012
0.926345
95.0437
145.572
107.784
100.003
93.2875
90.7998
93.8482
94.7367
90.6044
87.3352
84.98
82.4814
80.0236
77.5751
75.1658
72.7516
70.3716
67.9972
65.6245
63.3105
61.0254
58.7225
56.4565
54.2089
51.9761
49.756
47.5218
45.3115
43.1049
40.922
38.774
36.6141
34.4628
32.3502
30.2643
28.1886
26.1138
24.066
22.0624
20.0837
18.0971
16.109
14.1543
12.2397
10.3355
8.42946
6.55663
4.70433
2.82068
0.929252
93.3802
103.876
73.1144
96.6937
94.9694
94.839
95.2953
95.1278
90.7172
87.3927
85.017
82.511
80.0572
77.5981
75.1668
72.7537
70.3733
68.0065
65.6305
63.3042
61.0113
58.7204
56.4552
54.218
51.9829
49.7558
47.5284
45.3078
43.1036
40.9288
38.7719
36.6028
34.4564
32.3566
30.2677
28.1831
26.119
24.079
22.0643
20.0753
18.0897
16.1059
14.1525
12.2389
10.3318
8.43106
6.56234
4.704
2.82454
0.938405
93.9981
131.263
146.984
99.1095
97.7825
102.289
96.7307
95.034
90.2724
87.6621
85.0972
82.5643
80.0853
77.6135
75.1543
72.7615
70.3694
67.9979
65.6464
63.2987
61.0031
58.7163
56.4533
54.2189
51.9825
49.7591
47.5296
45.3052
43.1215
40.9417
38.7676
36.5995
34.4615
32.3638
30.2659
28.1721
26.1188
24.089
22.0692
20.068
18.0845
16.1127
14.1636
12.2407
10.3292
8.43274
6.5607
4.69343
2.82337
0.942322
90.4546
84.3236
49.5712
106.796
99.2172
96.0071
96.8859
93.9159
90.3298
87.752
85.1525
82.6089
80.1026
77.6213
75.1716
72.7634
70.3458
67.9781
65.6353
63.3059
60.9954
58.7077
56.4569
54.2136
51.9834
49.7592
47.5249
45.3052
43.1115
40.9369
38.7572
36.5991
34.475
32.3683
30.2579
28.1616
26.1137
24.0946
22.0738
20.0671
18.0825
16.1227
14.181
12.2431
10.3255
8.43426
6.55344
4.68157
2.81015
0.943065
85.8121
86.5202
94.8842
102.56
106.64
97.9046
96.9391
93.8746
90.3197
87.7493
85.158
82.6042
80.0809
77.6208
75.1694
72.7464
70.3441
67.9765
65.6308
63.3064
60.9987
58.7127
56.4612
54.2033
51.9736
49.7563
47.5296
45.3068
43.1087
40.9381
38.7596
36.607
34.4936
32.3737
30.2464
28.1467
26.1017
24.0889
22.0764
20.0656
18.0831
16.137
14.1981
12.2446
10.32
8.43733
6.5548
4.67026
2.79708
0.933539
90.8228
92.0153
85.0053
132.075
100.249
97.135
96.7372
93.8468
90.2689
87.7256
85.1383
82.5959
80.0787
77.6087
75.1606
72.7438
70.3427
67.9791
65.6361
63.3217
61.0091
58.7199
56.4618
54.1965
51.9557
49.7372
47.5222
45.3074
43.1107
40.9413
38.7679
36.6197
34.5027
32.3749
30.2415
28.1401
26.0918
24.08
22.0762
20.0661
18.0844
16.1482
14.215
12.2518
10.3181
8.43268
6.54925
4.65974
2.79163
0.933303
96.2029
94.3035
95.0923
99.3048
96.0826
98.8542
97.0636
93.8512
90.2308
87.689
85.115
82.577
80.0875
77.6109
75.1552
72.7439
70.34
67.9917
65.6572
63.3233
61.0166
58.7244
56.4537
54.1983
51.9477
49.721
47.5133
45.3101
43.1195
40.945
38.7843
36.6345
34.4989
32.3681
30.2452
28.1467
26.0876
24.0639
22.0576
20.0652
18.0895
16.151
14.2165
12.2681
10.3246
8.42132
6.53466
4.65624
2.79067
0.932699
100.591
97.2517
83.0294
122.795
105.298
97.6626
97.0196
94.2959
90.1819
87.6013
85.0703
82.5332
80.0464
77.5936
75.1503
72.7277
70.3503
68.0099
65.6725
63.3199
61.0135
58.7259
56.4461
54.1925
51.9491
49.7171
47.5028
45.3164
43.13
40.9463
38.7875
36.6332
34.479
32.355
30.2528
28.1614
26.0877
24.0546
22.0545
20.0666
18.0998
16.1508
14.2075
12.2686
10.3353
8.42019
6.53323
4.65931
2.79588
0.93312
112.561
106.321
98.4828
112.244
105.763
97.0296
96.0646
94.9787
90.786
87.3739
84.9991
82.5135
80.0258
77.5723
75.1432
72.7288
70.3463
67.9981
65.649
63.323
61.0264
58.7261
56.4511
54.1962
51.9635
49.7282
47.5022
45.3224
43.1273
40.9369
38.7875
36.6261
34.4723
32.3496
30.2603
28.1779
26.0936
24.0503
22.0548
20.073
18.1038
16.1378
14.1852
12.2612
10.3438
8.42381
6.53393
4.66707
2.80202
0.928322
116.191
95.906
103.345
104.329
87.0042
91.9928
94.7217
95.1944
90.6355
87.3084
84.9692
82.4729
80.0177
77.5638
75.1459
72.7339
70.3586
67.9905
65.6285
63.3272
61.0296
58.725
56.4555
54.1992
51.9708
49.743
47.5117
45.3168
43.1113
40.9283
38.782
36.6203
34.4696
32.3482
30.2611
28.187
26.1042
24.0557
22.06
20.0839
18.1031
16.1226
14.1668
12.2514
10.3414
8.42569
6.54018
4.68128
2.81012
0.926392
108.678
112.002
116.734
99.8316
88.5563
90.0732
93.8452
94.7411
90.6012
87.3359
84.9797
82.4814
80.0237
77.5751
75.1658
72.7516
70.3716
67.9973
65.6244
63.3105
61.0254
58.7223
56.4562
54.2089
51.9762
49.756
47.5218
45.3114
43.1049
40.922
38.7739
36.614
34.4627
32.3501
30.2644
28.1886
26.1138
24.0659
22.0623
20.0837
18.0971
16.109
14.1543
12.2397
10.3353
8.42944
6.5566
4.70449
2.82041
0.929215
99.2209
149.284
106.838
96.3343
95.0086
94.7251
95.2773
95.1385
90.7151
87.3931
85.0169
82.511
80.0572
77.598
75.1668
72.7537
70.3733
68.0064
65.6305
63.3043
61.0113
58.7204
56.4553
54.218
51.9827
49.7557
47.5284
45.3078
43.1037
40.9287
38.7722
36.6026
34.4563
32.3566
30.2677
28.183
26.119
24.079
22.0643
20.0753
18.0896
16.1057
14.1526
12.2391
10.3317
8.43104
6.56253
4.70407
2.82447
0.938532
93.5555
115.499
152.363
96.9759
98.5228
102.464
96.6768
94.9227
90.273
87.6618
85.0972
82.5643
80.0853
77.6135
75.1543
72.7614
70.3697
67.9977
65.6469
63.2987
61.0031
58.7163
56.4533
54.2189
51.9825
49.7593
47.5295
45.3051
43.1213
40.9417
38.7675
36.5993
34.4615
32.3638
30.2658
28.1721
26.1187
24.0889
22.0692
20.0679
18.0844
16.1128
14.1636
12.2407
10.3292
8.43272
6.5607
4.69342
2.82329
0.942348
97.7992
87.6361
112.076
116.915
101.607
96.1311
96.8958
93.9082
90.3305
87.7518
85.1525
82.6088
80.1026
77.6213
75.1716
72.7636
70.346
67.9781
65.6353
63.306
60.9954
58.7077
56.4569
54.2136
51.9833
49.7592
47.5247
45.3052
43.1116
40.9369
38.7574
36.599
34.4751
32.3684
30.2578
28.1616
26.1138
24.0945
22.0737
20.0671
18.0826
16.1229
14.1809
12.2429
10.3254
8.43432
6.5534
4.68154
2.81023
0.943065
85.8901
82.5146
99.1025
107.184
106.149
98.1968
96.9417
93.8723
90.3202
87.749
85.1581
82.6039
80.0807
77.6208
75.1694
72.7466
70.3441
67.9761
65.6308
63.3064
60.9984
58.7126
56.4612
54.2033
51.9736
49.7563
47.5294
45.3068
43.1088
40.938
38.7594
36.607
34.4941
32.3736
30.2461
28.1468
26.1017
24.0888
22.0763
20.0656
18.0831
16.1369
14.1982
12.2445
10.3201
8.43734
6.55466
4.67025
2.79714
0.933526
91.7448
92.1393
86.0339
127.785
118.818
97.1071
96.7176
93.8499
90.2684
87.7256
85.1383
82.596
80.0784
77.6087
75.1606
72.7434
70.3427
67.9794
65.6361
63.3215
61.009
58.7198
56.4615
54.1963
51.9558
49.7373
47.522
45.3073
43.1105
40.9413
38.7679
36.6197
34.5027
32.3748
30.2414
28.14
26.0917
24.08
22.0762
20.066
18.0842
16.1482
14.215
12.2519
10.3181
8.43261
6.54911
4.65963
2.79158
0.933301
95.7677
96.5759
95.3622
100.151
103.399
99.1728
97.0613
93.852
90.2303
87.689
85.1149
82.577
80.0874
77.6108
75.1551
72.7437
70.3405
67.9919
65.6571
63.3231
61.0166
58.7244
56.4535
54.1976
51.9479
49.7209
47.5131
45.31
43.1195
40.9454
38.7843
36.6344
34.4988
32.3681
30.2452
28.1467
26.0875
24.0644
22.0574
20.0651
18.0894
16.151
14.2164
12.2678
10.3247
8.42136
6.53451
4.65619
2.79079
0.93251
100.683
97.2109
96.04
112.658
110.196
98.5376
96.9953
94.2988
90.1818
87.6013
85.0701
82.5332
80.0462
77.5935
75.1502
72.7277
70.3502
68.0096
65.6723
63.3199
61.0133
58.7258
56.446
54.1924
51.9491
49.717
47.503
45.3163
43.13
40.9463
38.7872
36.6327
34.479
32.3551
30.2528
28.1614
26.0875
24.0546
22.0544
20.0664
18.0998
16.1509
14.2076
12.2682
10.3353
8.42011
6.53303
4.65948
2.79584
0.932799
113.66
105.711
98.9699
114.484
138.899
95.388
96.0628
94.9821
90.7869
87.3728
84.9992
82.5134
80.0257
77.5722
75.1431
72.7287
70.3462
67.9979
65.649
63.3228
61.0264
58.726
56.4511
54.1963
51.9634
49.728
47.5023
45.3223
43.1272
40.9369
38.7874
36.626
34.4722
32.3495
30.2603
28.1778
26.0935
24.0503
22.0549
20.073
18.1037
16.1375
14.1851
12.2611
10.3438
8.42373
6.53383
4.66701
2.8019
0.927991
118.181
106.374
109.297
84.0118
118.215
96.7526
94.6898
95.1834
90.6363
87.3082
84.9693
82.4727
80.0173
77.5637
75.1459
72.7339
70.3585
67.9905
65.6284
63.3272
61.0296
58.7247
56.4554
54.1992
51.9706
49.743
47.5118
45.3167
43.1112
40.9282
38.7817
36.6203
34.4695
32.3482
30.261
28.1869
26.1041
24.0556
22.0599
20.0841
18.1029
16.1228
14.167
12.2517
10.3413
8.42562
6.54031
4.68117
2.80985
0.926302
94.0809
117.179
91.7561
106.31
92.5304
90.0865
93.8374
94.7425
90.6019
87.3354
84.9796
82.4813
80.0238
77.575
75.1657
72.7515
70.3715
67.9973
65.6242
63.3104
61.0254
58.722
56.4561
54.2094
51.9762
49.7558
47.5217
45.3112
43.1048
40.9227
38.7742
36.6137
34.4625
32.3509
30.2644
28.1885
26.1138
24.0658
22.0623
20.0837
18.097
16.1085
14.1545
12.2397
10.3352
8.42937
6.55663
4.70443
2.81997
0.929191
96.7857
94.7694
108.548
95.4829
95.7366
94.7523
95.2833
95.1357
90.7149
87.3926
85.0169
82.5109
80.0571
77.598
75.1667
72.7536
70.3732
68.0062
65.6304
63.3043
61.0112
58.7203
56.4552
54.2179
51.9825
49.7556
47.5283
45.308
43.104
40.9287
38.772
36.6025
34.4563
32.3565
30.2677
28.1828
26.1189
24.0789
22.0643
20.0753
18.0895
16.1055
14.1525
12.2392
10.3315
8.43097
6.56258
4.70387
2.82396
0.93848
97.6688
98.1836
92.928
90.803
104.851
101.982
96.6754
94.9301
90.2727
87.6619
85.0971
82.5643
80.0852
77.6134
75.1543
72.7614
70.3699
67.9975
65.647
63.2987
61.003
58.7163
56.4535
54.2188
51.9823
49.7595
47.5294
45.305
43.1213
40.9417
38.7675
36.5992
34.4615
32.3637
30.2657
28.1721
26.1187
24.0888
22.0691
20.0678
18.0842
16.1128
14.1635
12.2406
10.329
8.43265
6.56064
4.69337
2.8233
0.942351
86.3503
86.7358
87.1009
111.351
103.613
96.8472
96.8668
93.9099
90.3302
87.7519
85.1524
82.6088
80.1025
77.6212
75.1715
72.7638
70.346
67.9781
65.6354
63.306
60.9953
58.7077
56.4569
54.2135
51.9831
49.7591
47.5246
45.3051
43.1117
40.937
38.7575
36.5989
34.475
32.3683
30.2577
28.1616
26.1138
24.0943
22.0736
20.067
18.0826
16.123
14.1808
12.2427
10.3254
8.43425
6.5533
4.68146
2.81039
0.942974
85.7879
84.7343
112.979
101.841
96.9438
97.4458
96.9434
93.872
90.3196
87.7491
85.1581
82.6038
80.0804
77.6208
75.1693
72.7468
70.344
67.976
65.6308
63.3064
60.9982
58.7125
56.4612
54.2032
51.9736
49.7563
47.5293
45.3068
43.1091
40.9379
38.7592
36.6068
34.4942
32.3735
30.246
28.1469
26.1017
24.0888
22.0763
20.0655
18.083
16.1369
14.198
12.2444
10.3201
8.43729
6.55448
4.67003
2.79714
0.933457
96.8728
98.0262
97.2523
97.0576
96.8701
97.9324
97.2495
97.388
98.5859
97.3978
98.8672
97.3859
98.5843
97.3938
97.3147
99.6981
96.7916
97.6354
97.319
99.7846
96.6511
96.3056
95.4208
95.0826
103.353
96.2951
95.2449
94.9319
94.4692
89.7674
93.1006
92.0685
94.4183
100.981
93.057
92.864
98.4232
94.4168
90.0796
92.8585
96.7567
94.408
94.7401
98.1721
96.5331
94.7826
94.6312
98.093
96.5288
96.9543
94.0586
96.7061
102.211
96.9369
93.8438
96.6879
96.9277
98.5147
97.1648
96.146
96.9143
98.4472
97.1597
97.2187
98.2576
96.8756
99.0509
97.1802
97.9151
96.8706
96.871
98.2146
97.2576
97.2092
96.8723
98.0202
97.2558
97.3765
98.5793
97.4151
98.7701
97.3751
98.4834
97.4166
97.3089
99.7303
96.6948
98.6772
97.3043
99.2626
96.6606
96.3067
95.114
94.9207
95.7264
96.2847
95.2887
94.9081
94.4216
102.633
93.0488
96.7295
94.4415
89.248
93.0522
92.8449
94.7317
94.4167
90.1102
92.8504
94.2755
94.4113
95.0169
98.1013
96.5366
94.6869
94.8629
98.1371
96.519
96.9324
93.6745
96.6777
102.254
96.9472
110.179
96.7103
96.9081
98.4803
97.1646
96.7248
96.9507
98.1352
97.1405
97.2452
97.6668
96.8743
97.4586
97.1764
97.5645
96.8695
96.8794
98.0197
97.2549
97.2807
96.8769
97.9982
97.2763
97.3922
98.438
97.4086
98.9959
97.3813
98.5146
97.3989
97.3355
99.1753
96.6835
99.4618
97.3052
100.391
96.9117
96.3081
95.3605
94.9009
97.5034
96.2919
95.4091
94.9096
94.4782
89.0109
93.0524
92.3043
94.402
90.1559
93.0942
92.8482
96.5612
94.4234
90.8245
92.8496
93.2364
94.4217
94.8333
98.2955
96.5163
94.6497
95.2569
98.2769
96.5243
96.9433
104.002
96.7264
101.695
96.9488
102.168
96.7262
96.9288
98.6589
97.1431
99.7127
96.9149
98.5136
97.2148
97.1807
97.5898
96.8759
97.4606
97.1956
97.8405
96.8749
95.1747
92.5648
96.5749
100.262
95.0441
92.18
96.3245
97.0278
97.1133
97.4492
97.1905
97.3684
97.1429
97.1072
95.0246
96.9385
95.1056
96.7123
95.0297
96.9497
95.1128
99.709
101.076
100.363
98.6694
99.4773
98.2361
99.7904
98.3176
98.2984
99.9649
98.9439
98.3019
99.4478
98.0849
95.086
97.1255
95.375
97.0679
95.0884
97.1419
95.2704
96.3043
104.094
95.5784
104.613
94.5414
103.154
95.9722
97.2266
98.0211
96.8921
97.6321
98.0456
97.0124
97.2817
95.5517
96.6337
96.0301
97.0814
95.4512
96.6297
96.0584
97.417
100.666
98.9251
105.785
122.129
104.503
98.0804
96.74
96.2282
96.1242
97.719
96.2302
94.9392
96.8481
95.9961
95.464
95.4906
96.0616
96.0094
95.4546
95.4887
94.1019
79.3313
96.2226
87.0719
101.873
79.4052
115.035
94.8387
93.2665
95.9734
91.7794
93.2594
96.1438
94.8186
94.9702
93.8223
94.6044
94.7056
94.931
93.8196
94.5472
123.402
95.4106
91.3474
88.4596
114.315
90.6686
96.4989
91.9965
91.4873
91.4045
90.4032
91.47
91.416
92.0081
94.5848
94.3952
94.8342
93.8419
94.5314
94.3917
94.8092
96.3916
95.2719
100.448
94.951
96.4348
95.8778
96.6494
95.4556
94.8298
95.4239
94.7819
94.7845
96.7554
95.4777
95.299
96.0348
95.962
95.2732
95.2961
96.036
95.9783
102.885
111.464
101.641
97.6746
102.702
111.533
101.951
97.6609
98.6103
99.1014
102.134
98.5762
97.129
97.6153
96.0317
96.7048
95.7403
96.6906
96.0497
96.6946
95.6245
100.52
99.0779
99.8635
105.59
99.8771
101.244
99.7218
97.2115
97.0767
100.365
96.0194
97.1482
97.4805
97.4891
95.5021
96.9973
95.1139
96.9251
95.3756
97.0011
95.1182
100.788
99.7332
99.3242
105.617
102.616
99.8805
98.2673
97.4827
97.4176
97.7148
97.9453
97.4347
97.7093
97.508
95.0542
96.7056
94.9643
96.9427
95.0586
96.6862
94.9698
95.116
92.5174
96.4339
103.461
95.1864
94.9755
96.5535
97.0297
97.0791
97.4964
97.2314
97.0228
97.5146
97.0716
95.0276
96.9507
95.1102
96.7271
95.0258
96.9492
95.1101
99.5142
98.3089
99.8577
98.2788
99.5797
103.523
100.006
98.2234
98.1708
99.5602
98.8313
98.1904
98.1709
99.6239
95.0851
97.1422
95.2624
97.0603
95.0837
97.143
95.2625
99.603
111.006
94.5228
147.871
119.237
137.778
90.31
97.2535
97.9924
97.0688
97.6322
97.2471
98.0162
97.0073
95.439
96.6252
96.0639
97.0175
95.443
96.6298
96.0624
96.9387
95.0976
99.6197
138.846
94.1883
100.907
91.9138
96.1359
96.2093
102.96
96.7044
97.5896
96.1886
100.306
96.0095
95.4541
95.4927
96.0616
96.0016
95.4575
95.493
103.765
79.753
96.6696
128.58
75.9111
81.2271
98.7444
95.1265
93.2188
96.1908
91.8996
95.0254
93.2331
96.3034
94.9733
93.8156
94.5347
94.7042
94.9474
93.816
94.5417
114.716
90.2927
97.9405
95.5756
106.323
90.2016
97.2526
91.9659
91.3025
91.4683
90.1982
91.9741
91.1895
91.4077
94.5314
94.3938
94.8111
93.8572
94.483
94.3973
94.8128
96.5225
102.724
96.788
95.5533
95.3848
96.9876
96.1918
95.4594
94.7969
95.7249
94.7057
95.4614
94.7916
95.6224
95.3013
96.0339
95.98
95.2735
95.2998
96.034
95.9802
102.745
103.427
106.236
102.713
107.873
101.086
106.076
98.6824
98.5985
97.6698
104.109
97.7451
98.5784
115.388
96.0567
96.6901
95.6143
96.7068
96.054
96.7056
95.6122
99.4382
101.757
98.7777
99.5185
98.9311
101.468
98.7193
98.0005
97.2878
98.0966
96.3995
97.0792
97.1538
98.0547
95.3637
97.0004
95.114
96.8514
95.3641
96.9986
95.1134
100.04
100.103
98.237
114.985
98.6164
101.21
98.2419
97.5703
97.4465
97.6676
100.394
97.5652
97.5832
100.417
95.0547
96.6987
94.9678
96.9421
95.055
96.6993
94.967
95.2704
101.893
96.8284
114.866
98.2663
132.268
100.797
97.0388
97.0126
97.6832
97.0827
97.0383
97.7265
97.0044
95.0288
96.9471
95.1128
96.7316
95.0245
96.933
95.1051
101.107
104.603
99.7991
104.945
100.355
100.844
100.04
98.4056
98.1128
99.8473
98.9601
98.3461
98.1224
99.997
95.0865
97.1923
95.2707
97.0577
95.083
97.1525
95.3759
104.422
136.579
102.839
100.968
96.8091
128.007
64.0485
97.3037
98.0405
99.7837
104.32
97.2942
98.1252
98.1706
95.4482
96.6273
96.059
97.0516
95.5593
96.6295
96.0286
94.748
103.63
92.9084
77.3358
91.2877
93.6231
92.1691
95.684
96.1069
99.8009
97.5267
97.058
96.0676
99.0093
95.9978
95.4517
95.4986
96.0721
95.9852
95.4511
95.4928
77.4096
91.7631
100.23
119.5
74.3921
81.2489
95.9976
95.9172
93.3356
96.0459
93.4976
95.7611
93.3965
114.177
94.9383
93.8156
94.5682
94.7093
94.9858
93.8174
94.6192
121.469
90.8246
102.283
96.1255
63.1189
93.8572
111.084
91.9272
90.7454
91.088
92.6315
91.9534
90.5815
91.6665
94.4879
94.3961
94.8086
93.8453
94.5261
94.3945
94.8268
99.8407
96.3672
96.1701
95.8558
92.8181
97.2124
96.1634
95.5036
94.7785
95.666
94.8919
95.499
94.7754
95.6676
95.3029
96.0355
95.9792
95.2938
95.2999
96.0331
95.9639
107.74
100.742
114.602
94.1577
106.988
101.72
104.431
98.6218
98.5769
106.013
101.608
97.2862
98.7002
104.396
96.0515
96.7356
95.626
96.7002
96.0321
96.7129
95.733
99.4473
101.054
98.8123
97.9145
101.554
101.523
99.3891
97.6171
97.1287
97.4165
96.6259
97.6374
97.0732
98.4478
95.3762
96.9983
95.1173
96.8645
95.5027
96.9946
95.1132
98.5941
100.917
100.882
103.366
98.9846
99.287
99.682
97.3313
97.4436
98.9305
97.417
97.2691
97.4332
98.9048
95.0586
96.69
94.9699
96.939
95.0538
96.6999
94.9648
97.0134
96.951
96.9119
96.8707
96.8993
97.0177
96.9518
97.3687
100.872
97.6892
97.9118
98.1637
97.6851
97.3481
97.187
97.0438
97.4226
97.2462
97.0408
97.3964
97.3059
97.0178
97.0883
97.0996
97.4307
97.4609
97.0216
97.1139
97.0122
96.8743
96.9453
96.905
96.9081
96.9981
96.9554
97.3555
97.9326
98.146
97.6698
98.1447
97.6913
97.3529
97.1836
97.2444
97.0453
97.3813
97.0615
97.4105
97.1966
97.6945
97.6924
97.4827
97.3836
97.6827
97.4223
97.7225
98.3739
99.0396
98.1047
98.5975
99.2433
98.1083
98.6726
97.7681
97.5527
97.7152
97.3954
97.509
97.7174
97.8403
98.1351
98.8839
98.1889
99.4892
98.2439
99.4463
98.1556
97.7139
97.3845
97.6785
97.4336
97.6844
97.4433
97.6384
98.3514
98.6227
98.8025
98.1217
98.7256
98.1258
98.3696
97.7775
97.4515
97.5172
97.725
97.5274
97.722
97.7581
97.5062
97.614
97.1792
97.3104
97.6407
97.1832
97.5031
98.4983
98.4061
96.8896
99.7049
95.9436
96.8856
98.0648
97.6213
97.2631
97.1028
96.656
97.1541
97.0976
97.6028
97.2518
97.6366
98.0094
97.1966
98.0402
97.3657
97.2471
97.4866
97.3609
97.607
97.1704
97.6157
97.2143
97.4628
97.7426
99.7434
100.571
96.9387
100.342
96.949
98.2843
97.6893
96.6644
97.3236
97.1021
97.1799
97.0868
97.6768
96.1563
96.3585
95.9217
96.314
96.35
95.9468
96.1508
95.6002
98.6338
95.1105
95.2456
98.2118
95.0466
95.794
95.4877
95.4713
94.8595
94.9319
95.4346
94.8511
95.4887
96.4697
97.4682
96.2186
93.74
96.2251
94.4073
96.4759
96.1474
96.2993
96.3407
95.9315
96.3586
95.9568
96.1479
95.6215
95.4994
98.1913
95.0856
98.073
95.0636
95.5967
95.4821
94.9314
95.462
94.8528
95.4264
94.8433
95.4776
94.3432
94.1177
94.2414
94.4351
94.094
94.2377
94.3429
92.1464
88.1457
90.4115
88.2736
88.0871
90.6612
92.2489
92.2674
93.3853
92.1079
93.0477
93.366
92.1147
92.3133
94.8923
92.0387
93.2329
96.0898
93.2639
95.7909
94.9967
94.3488
94.45
94.1058
94.2364
94.0998
94.2378
94.3603
92.4572
105.134
88.4963
91.4906
88.1403
91.6449
92.2202
92.2645
93.0379
93.3454
92.1325
93.3628
92.1259
92.3134
92.6174
92.2485
93.3023
92.8714
92.2547
93.2961
92.6304
93.3197
93.0395
93.9067
93.7184
93.0417
93.8998
93.3383
93.3492
93.6587
94.0921
94.4131
93.6505
94.0898
93.3538
91.9914
90.1081
91.39
91.3832
91.4348
91.4548
91.9888
92.6161
92.8701
92.2635
93.2956
92.2713
93.294
92.62
93.3164
93.7953
93.0152
93.8969
93.1257
93.8863
93.2905
93.363
94.4205
93.6505
94.0611
93.6701
94.1547
93.3353
95.4153
95.2854
95.4471
94.7939
94.8113
95.4437
95.4492
96.2571
98.0125
97.88
98.1196
97.3671
97.8476
96.2641
96.1218
95.9817
97.0226
96.5309
96.0004
97.0168
96.1153
95.4803
94.7876
94.7982
95.125
94.7961
96.1479
95.4803
95.3799
94.6917
94.6654
95.4394
94.7898
95.439
95.4019
96.1776
98.1
96.9265
97.8587
97.0361
97.9164
96.1879
96.1066
96.5299
95.9862
97.0212
96.0119
97.0167
96.1185
97.3172
98.1296
96.9455
96.9421
98.1274
96.9011
97.3434
98.5717
97.2921
96.6981
94.5605
97.3987
96.5926
99.9629
97.6706
97.087
97.2584
96.665
97.0729
97.183
97.6483
97.6533
102.137
98.6671
97.5246
98.5767
97.3396
97.6936
97.3051
96.9467
98.1386
96.897
98.1385
96.9022
97.3106
98.7191
94.0753
97.0834
96.5489
97.1909
96.6852
98.8263
97.6187
96.6661
97.0676
97.2634
97.0726
97.2051
97.6252
96.9991
97.0809
96.8186
96.9295
97.0837
96.8136
97.0247
96.7149
101.954
98.2625
98.541
100.998
97.7426
103.139
99.9214
97.8684
97.4296
97.1628
97.1063
97.3836
100.828
96.9779
96.0068
97.4939
97.8121
97.189
97.8419
97.7266
96.9626
96.9835
97.1209
96.8315
97.1186
96.8106
96.9952
97.3488
98.5049
106.961
99.4602
106.567
97.8987
96.9898
99.5583
97.1644
97.8183
97.4199
97.2101
97.2543
99.9824
97.1302
97.3156
97.0651
97.1758
97.3233
97.0334
97.1543
97.5646
99.4297
97.3054
98.2936
99.5137
97.6964
97.2625
97.1022
96.9976
96.9047
96.8664
96.9706
97.1094
96.9053
97.7306
98.4312
97.6375
97.5744
97.4248
97.746
97.5719
97.1327
97.2055
97.3239
97.0412
97.3032
97.0553
97.1431
97.5819
97.9944
98.7632
97.2421
98.9184
97.6317
97.2573
97.1033
96.8769
96.9739
96.9046
97.0167
97.1099
96.9037
96.9877
96.9589
96.911
96.8707
97.0175
96.9069
96.9272
97.3172
99.7495
97.6696
97.979
97.3934
97.8187
97.6547
97.1879
97.0526
97.3825
97.2532
97.192
97.047
97.3863
97.0516
97.2495
97.033
97.6856
97.701
97.0354
97.049
96.9865
96.8742
96.924
96.908
96.9118
96.9682
96.9264
97.3309
98.0372
98.0253
97.6564
98.0234
97.6469
97.3268
97.2004
97.2598
97.0492
97.3786
97.0506
97.3828
97.1672
97.6506
97.6862
97.4773
97.3805
97.6324
97.667
97.4243
98.2894
98.8111
98.0924
98.5724
98.275
98.4857
98.0973
97.7397
97.5709
97.7024
97.3906
97.7448
97.5082
97.6946
98.2459
98.7754
98.1259
99.7223
98.1503
99.6769
98.3039
97.6604
97.3797
97.5801
97.4518
97.6218
97.4451
97.6655
98.3062
98.5455
98.6694
98.1217
98.495
98.1093
98.3136
97.7351
97.3853
97.4865
97.6951
97.5065
97.7699
97.7308
97.446
97.6364
97.2328
97.2832
97.459
97.6078
97.0892
98.3128
100.792
97.0075
99.8444
98.062
101.545
96.883
97.7606
97.5601
97.0961
96.6662
97.7127
97.4995
97.097
97.2731
102.309
98.0862
97.6626
98.0548
97.174
97.2823
97.4319
97.317
97.5566
97.1631
97.6063
97.1556
97.4131
98.4408
99.7898
103.377
96.8792
105.316
96.833
98.4051
97.7812
96.688
97.233
97.0549
97.4153
97.064
97.7644
96.179
96.335
95.9767
96.2859
96.1508
96.3322
95.9427
95.3518
98.8447
95.1043
95.6053
95.4494
99.1244
95.1187
95.4556
95.4141
94.8734
94.9233
95.4668
95.4389
94.8549
97.7014
96.0504
96.1329
101.734
96.1649
98.6581
96.6353
96.1631
96.2983
96.3196
95.9201
96.3205
95.9307
96.1554
95.3079
95.2181
95.7874
95.0802
93.623
95.096
95.4392
95.4647
94.9177
95.4057
94.8924
95.4179
94.8616
95.4573
94.397
94.1137
94.2128
94.4066
94.39
94.1316
94.2312
92.2461
88.3896
92.2823
101.702
92.2793
91.983
93.2423
92.3077
93.3407
92.1403
93.0598
92.295
93.3653
92.1308
95.2849
99.0579
93.3338
96.4735
93.2075
96.4945
95.4988
94.4242
94.3805
94.1517
94.2363
94.1404
94.2394
94.4576
92.2895
89.3793
98.2787
91.5217
92.2896
91.3642
92.3543
92.3376
93.0467
93.3538
92.0975
93.3436
92.1176
92.3643
92.6208
92.2615
93.2928
92.8471
92.6165
92.2574
93.3023
93.2457
93.0364
93.9113
93.7288
93.2776
93.0562
93.9256
93.3295
93.659
94.0619
94.4144
93.3411
93.6398
94.1324
91.9348
90.2475
90.9082
91.1784
91.053
91.3324
91.932
92.6133
92.8431
92.2388
93.2937
92.2478
93.286
92.6214
93.2344
95.0709
92.9868
93.9272
93.0134
93.9343
93.2293
93.339
94.4126
93.644
94.0668
93.6677
94.0793
93.3069
95.4194
94.7345
95.4413
94.8933
95.4158
94.8013
95.4489
96.2968
96.9369
98.0323
98.1306
96.2085
96.994
97.9616
96.1382
96
97.0521
96.5203
96.142
96.0018
97.0858
95.4679
94.7449
94.7814
95.6614
94.7883
95.6299
95.4763
95.4183
95.0619
94.7185
95.4419
94.8159
95.4476
95.4313
96.3391
98.1235
97.0664
97.9007
97.0051
97.9338
96.3194
96.1331
96.515
95.9779
97.0394
96.0094
97.0486
96.1332
97.3372
98.1507
96.8883
96.932
97.3238
98.1492
96.9466
98.7893
97.1251
96.663
109.635
98.7512
97.167
96.788
97.6384
97.078
97.258
96.7021
97.6368
97.0655
97.3119
98.877
102.016
98.5756
105.459
98.5898
102.596
99.3208
97.3335
96.9356
98.153
96.914
98.1589
96.9094
97.3208
98.5952
103.474
98.2095
97.4381
97.9781
97.0484
98.3595
97.6147
96.6866
97.0666
97.3794
97.0758
97.3669
97.5968
96.9076
97.0716
96.8589
96.9137
96.9176
97.0776
96.8345
99.7725
112.419
99.2915
98.2977
98.1492
94.2345
97.6309
97.9155
97.1119
97.3853
97.1595
97.8675
97.1307
97.3225
97.8475
96.4927
97.143
97.4671
97.1537
97.9665
97.4077
96.9098
96.9125
97.2199
96.9148
97.1033
97.0208
96.9507
98.5715
98.1178
94.1997
97.7244
94.2126
97.7064
98.9467
96.0769
97.1639
97.1976
97.2806
97.2033
97.2984
96.1778
97.1336
97.3429
97.0739
97.1692
97.1317
97.283
97.0311
97.5743
98.5662
97.2421
97.6307
97.5907
98.4662
97.2042
97.1127
96.9974
96.9017
96.8692
97.1048
96.9767
96.9035
97.3852
97.4433
97.4354
98.6528
97.4319
98.9992
97.2733
97.1432
97.1978
97.2799
97.0304
97.2753
97.0662
97.1394
97.4434
97.6118
99.3969
97.0591
98.4224
97.4419
97.1365
97.1556
96.8704
96.9706
96.9101
96.9716
97.1109
96.9074
96.9443
96.9258
96.9128
96.8681
96.9659
96.9009
96.9085
97.3186
98.0291
97.6611
97.9968
97.3175
98.056
97.6597
97.1821
97.0653
97.376
97.2593
97.1696
97.035
97.4135
97.0474
97.1047
97.0949
97.8163
97.7625
97.0409
96.9902
96.929
96.8694
96.9572
96.9086
96.9021
96.9518
96.9001
97.3154
97.9828
98.0251
97.6475
98.0334
97.6526
97.3103
97.2089
97.2522
97.0535
97.4145
97.0399
97.4159
97.2048
97.6655
97.569
97.4715
97.3765
97.6572
97.5621
97.4402
98.388
98.7196
98.1161
98.4664
98.3364
98.6029
98.1133
97.7437
97.4881
97.7245
97.3863
97.7309
97.4653
97.7031
98.4168
98.9986
98.3393
101.02
98.1659
100.172
98.4184
97.6829
97.3875
97.5756
97.4478
97.5724
97.4365
97.6862
98.389
98.5352
98.9591
98.3527
98.5966
98.119
98.4663
97.7427
97.395
97.5072
97.7433
97.4654
97.7061
97.7866
97.435
97.5509
97.1709
97.2972
97.4191
97.5475
97.1479
99.3799
103.307
96.8302
105.55
98.3767
103.847
96.8318
97.7701
97.2819
97.1113
96.6283
97.8004
97.2714
97.0968
97.2988
99.687
98.22
98.6653
98.1282
98.3847
97.3137
97.4336
97.2979
97.5595
97.1999
97.5601
97.1521
97.4552
98.013
99.7531
104.867
96.8556
104.92
96.8494
98.2361
97.7614
96.7506
97.0101
97.0663
97.1114
97.056
97.7388
96.1716
96.3587
95.9079
96.3055
96.164
96.313
95.9578
95.1912
94.3339
95.0976
95.4427
95.4244
94.5499
95.0776
95.4979
95.4937
94.915
94.8888
95.4601
95.4248
94.9115
95.8458
96.5982
96.1813
103.527
96.0084
106.617
95.8075
96.1847
96.2888
96.3175
95.9436
96.3162
95.9346
96.1893
96.5074
95.3786
96.5275
95.0659
94.6988
95.0744
95.9206
95.4432
94.9037
95.443
94.9209
95.4344
94.916
95.4401
94.5149
94.1539
94.2355
94.4322
94.4784
94.1373
94.2453
92.563
98.3484
91.5595
89.0534
92.4527
109.702
91.4307
92.3923
93.3548
92.0759
93.0561
92.384
93.3561
92.0729
96.0651
100.217
93.4846
98.5944
93.4089
102.11
96.2103
94.5304
94.4002
94.1233
94.2474
94.123
94.2472
94.5471
92.2594
88.7927
101.509
91.421
98.1928
91.3333
92.3192
92.4025
93.0576
93.3673
92.0802
93.3568
92.074
92.4114
92.6119
92.2383
93.2934
92.8529
92.6106
92.2245
93.2921
93.157
93.1211
93.9236
96.4713
93.2283
93.1166
93.9448
93.2902
93.6588
94.1069
94.4162
93.31
93.6517
94.1067
91.9758
90.5528
90.547
91.096
90.4884
90.4826
92.0479
92.6249
92.8489
92.2208
93.2964
92.2231
93.2975
92.6235
93.1199
93.1661
92.9426
93.9198
92.9801
93.9287
93.5377
93.2879
94.4186
93.6609
94.127
93.6514
94.0709
93.3346
95.4496
94.7615
95.4338
94.7126
95.4435
94.8792
95.4449
96.3624
97.2229
98.0026
98.2231
96.3241
97.2203
97.9549
96.1423
95.9856
97.0524
96.5141
96.1448
95.9816
97.0103
95.5346
94.6728
94.7804
95.8718
94.7721
95.7001
95.5285
95.4391
95.09
94.9137
95.4624
95.0298
95.4573
95.4571
96.3691
98.2423
97.2847
97.9544
97.2773
97.9534
96.3546
96.1584
96.5316
95.9947
97.051
95.9878
97.0282
96.156
97.305
98.1597
96.9195
96.9424
97.3146
98.1528
96.9199
100.798
98.5586
97.4056
101.585
98.504
105.024
97.1881
97.621
97.0787
97.3859
96.7186
97.6004
97.0977
97.4163
97.5293
101.713
98.632
100.042