/*--------------------------------*- C++ -*----------------------------------*\
| =========                 |                                                 |
| \\      /  F ield         | OpenFOAM: The Open Source CFD Toolbox           |
|  \\    /   O peration     | Version:  5.0                                   |
|   \\  /    A nd           | Web:      www.OpenFOAM.org                      |
|    \\/     M anipulation  |                                                 |
\*---------------------------------------------------------------------------*/
FoamFile
{
    version     2.0;
    format      ascii;
    class       surfaceScalarField;
    location    "5";
    object      phi;
}
// * * * * * * * * * * * * * * * * * * * * * * * * * * * * * * * * * * * * * //

dimensions      [0 3 -1 0 0 0 0];

internalField   nonuniform List<scalar> 
28933
(
-1.84731e-09
-1.33294e-09
2.53139e-09
5.51498e-10
8.58551e-09
-1.30836e-08
6.10275e-10
-1.55815e-09
-1.37323e-09
-8.28667e-09
-2.6878e-09
1.38732e-08
-7.21893e-10
3.69033e-10
8.98067e-10
1.32383e-09
3.50995e-10
-1.93166e-09
1.50468e-09
7.24128e-10
-3.84123e-10
-3.34094e-09
-8.48441e-10
2.31462e-09
-8.59152e-10
1.70886e-09
3.92327e-10
-8.28812e-11
6.22568e-11
-1.27546e-10
-3.85744e-11
4.93415e-11
-8.68171e-11
9.83876e-11
-3.0458e-11
1.76616e-10
1.14773e-11
-1.14477e-12
-2.93983e-11
-5.58244e-11
-5.31884e-11
1.32864e-09
1.15249e-11
-2.5758e-11
-2.36729e-10
-2.35927e-10
-3.92928e-10
-3.87654e-10
1.35702e-09
1.14031e-11
-1.17162e-12
1.3718e-09
7.52514e-12
3.61583e-13
1.38147e-09
5.42967e-12
-1.13734e-13
1.38771e-09
3.7307e-12
3.29338e-14
1.38968e-09
1.66749e-12
-2.6825e-13
1.39127e-09
1.43559e-12
1.39114e-13
1.39307e-09
4.19194e-13
3.05429e-13
1.39347e-09
9.19611e-13
2.60006e-15
1.39387e-09
2.09313e-13
1.53431e-13
1.39381e-09
-2.90971e-13
-5.51435e-13
1.39496e-09
3.44281e-13
1.37666e-12
1.39474e-09
6.09671e-15
-1.66134e-13
1.3945e-09
1.42824e-13
-1.57156e-14
1.39453e-09
4.73776e-13
-5.56328e-13
1.39454e-09
-2.33841e-13
3.16114e-13
1.39438e-09
3.25085e-13
-7.67954e-13
1.39437e-09
-1.74719e-12
-5.65802e-13
1.3944e-09
2.65298e-13
1.53163e-13
1.39449e-09
9.03048e-14
-1.33124e-14
1.39421e-09
-2.53235e-13
8.47451e-13
1.39439e-09
2.09006e-13
2.54827e-13
1.3936e-09
-1.05925e-12
3.84692e-12
1.39362e-09
-9.65293e-13
3.92184e-13
1.39383e-09
-1.29797e-13
7.06385e-13
1.39437e-09
2.17454e-13
-1.30725e-12
1.39409e-09
2.91228e-14
1.2411e-14
1.39388e-09
1.24629e-13
9.33022e-14
1.39338e-09
4.98099e-13
1.22788e-14
1.39323e-09
5.95557e-13
-5.89709e-13
1.395e-09
-3.00911e-12
6.94067e-13
1.39423e-09
4.53718e-13
1.02964e-13
1.39405e-09
1.17147e-13
3.24681e-14
1.39411e-09
5.07171e-14
-4.8112e-13
1.39508e-09
-2.12768e-13
3.36455e-12
1.39346e-09
3.3028e-12
-1.635e-12
1.39358e-09
-3.14844e-13
2.97802e-13
1.39375e-09
5.08967e-13
-1.11171e-12
1.39442e-09
-3.71667e-13
-1.23363e-13
1.39413e-09
2.17507e-13
1.38439e-13
1.39361e-09
-2.8111e-13
5.8453e-13
1.28881e-12
-1.14919e-12
6.44554e-09
1.10793e-09
-7.49771e-09
6.84154e-09
7.49305e-09
6.97063e-10
3.49296e-10
7.94132e-09
2.78645e-09
-4.68979e-11
6.37209e-10
-4.0345e-11
-2.38438e-10
-1.5491e-08
-3.7053e-09
9.4311e-09
1.61406e-09
1.92794e-09
1.66701e-09
3.36313e-09
2.4369e-09
-2.98775e-09
-2.46293e-09
2.22344e-09
-8.26422e-10
-8.83089e-10
-8.27629e-10
3.13695e-10
-7.59353e-11
-3.38322e-10
1.65726e-10
-1.74982e-10
4.23499e-10
-3.93345e-11
3.77376e-13
-6.27909e-12
-2.11185e-11
6.63546e-11
-2.98448e-11
1.86364e-10
-4.42455e-13
-4.34434e-12
-3.20662e-11
-5.46287e-11
-5.98485e-11
-5.1901e-12
1.33017e-09
-4.67687e-11
-2.34791e-11
-2.36503e-10
-2.3737e-10
-3.86788e-10
-3.87768e-10
1.35189e-09
-8.77421e-12
-1.57181e-12
1.36842e-09
-9.43487e-12
3.88954e-13
1.37837e-09
-4.60348e-12
3.68703e-14
1.38488e-09
-2.95973e-12
1.32256e-13
1.38843e-09
-2.01914e-12
8.80633e-14
1.39102e-09
-1.21705e-12
4.43472e-15
1.39198e-09
-5.37252e-13
-6.25866e-14
1.39325e-09
-6.29661e-13
2.34538e-13
1.39402e-09
-1.2994e-12
6.81426e-13
1.39391e-09
-1.10304e-12
8.63222e-13
1.39411e-09
1.38998e-14
7.61001e-14
1.39468e-09
-6.09211e-13
-7.29873e-15
1.39462e-09
1.13315e-13
3.65583e-14
1.39441e-09
-8.37375e-13
1.46869e-12
1.39488e-09
6.08899e-13
-1.35714e-12
1.39483e-09
6.73928e-14
2.71583e-13
1.39393e-09
-8.79151e-14
-8.07402e-13
1.39423e-09
-1.62848e-13
9.3204e-14
1.39434e-09
1.03169e-14
-7.42404e-14
1.39332e-09
-8.53268e-13
1.57849e-12
1.39346e-09
-1.67072e-13
2.05102e-13
1.39386e-09
4.01481e-13
-1.89267e-12
1.39394e-09
6.13664e-13
-1.6907e-12
1.39482e-09
-2.85398e-12
1.81353e-12
1.3945e-09
-3.18923e-12
3.70153e-12
1.39414e-09
3.57865e-13
8.36917e-15
1.39433e-09
4.52747e-14
-1.25306e-13
1.39459e-09
2.13014e-13
5.59635e-15
1.39467e-09
1.3153e-13
3.7576e-13
1.39304e-09
-9.21487e-13
-4.64805e-13
1.39354e-09
3.27032e-13
-3.84367e-13
1.39354e-09
-2.94864e-13
4.15709e-13
1.3936e-09
-2.7342e-13
2.58191e-13
1.39332e-09
1.26305e-14
5.88642e-14
1.39479e-09
2.50571e-13
1.5782e-12
1.39443e-09
-1.34846e-13
1.79136e-13
1.39419e-09
-1.12101e-13
8.65841e-13
1.39369e-09
-1.00324e-13
2.30778e-13
1.39382e-09
1.78751e-13
-9.83466e-14
1.39385e-09
9.00655e-13
-1.20836e-12
-2.4587e-13
1.1993e-12
-5.50105e-09
1.64962e-09
6.34858e-09
-2.59961e-09
9.2257e-10
3.669e-09
-5.88829e-09
-4.22362e-09
-6.5976e-09
-4.42056e-09
-7.79087e-09
-4.77623e-09
2.65184e-08
-7.99369e-09
2.04782e-08
-1.06636e-09
-4.05713e-09
-6.40234e-09
5.63746e-09
-1.41428e-09
2.70418e-09
-8.9132e-10
-2.55769e-09
6.31898e-10
2.58095e-11
1.79398e-10
1.32199e-09
-2.01395e-10
6.68552e-10
-2.63121e-10
1.18794e-10
-3.22844e-10
-7.17357e-11
1.61821e-11
-5.86904e-11
2.48973e-11
8.93465e-11
-3.4207e-11
1.70008e-12
-2.41077e-12
9.82861e-12
2.50908e-11
1.36787e-09
-1.26771e-11
-2.77094e-11
-2.45873e-10
-2.44171e-10
-4.08655e-10
-4.03349e-10
-1.76314e-11
-2.28896e-11
-3.17011e-11
1.36548e-09
-4.09938e-12
-2.29771e-12
1.37618e-09
-2.02055e-11
4.80978e-14
1.38259e-09
-1.11402e-11
8.02443e-14
1.38725e-09
-7.67041e-12
4.17281e-15
1.38995e-09
-4.80044e-12
3.09726e-14
1.39169e-09
-3.03338e-12
2.46177e-14
1.39289e-09
-1.92387e-12
1.34721e-13
1.39363e-09
-1.30608e-12
-1.06576e-13
1.39456e-09
-3.53317e-12
1.25629e-12
1.3941e-09
2.41586e-13
-9.39285e-13
1.3948e-09
-6.67438e-13
-7.04902e-14
1.39414e-09
4.32301e-13
-4.41224e-13
1.39476e-09
-4.83702e-13
-6.53427e-14
1.39466e-09
-6.61156e-13
-1.2752e-13
1.3943e-09
-4.76979e-13
1.39945e-12
1.3938e-09
1.07233e-12
-5.49592e-13
1.39399e-09
-4.5507e-13
1.37067e-13
1.3939e-09
6.87611e-14
-1.76774e-13
1.39371e-09
-7.91942e-14
2.3333e-13
1.39424e-09
4.14264e-13
-1.83491e-12
1.39473e-09
9.85918e-13
-1.67874e-12
1.39446e-09
5.83708e-13
4.62614e-14
1.39531e-09
9.70056e-13
-1.23564e-12
1.39405e-09
1.13383e-13
-1.72958e-12
1.39363e-09
2.60251e-13
-3.05537e-12
1.39394e-09
-2.75397e-14
5.02477e-14
1.39401e-09
-1.26754e-13
8.73991e-14
1.39424e-09
1.39147e-14
-4.23527e-14
1.39403e-09
5.36449e-14
2.71283e-13
1.39374e-09
-2.9023e-13
-3.43694e-13
1.39328e-09
1.16582e-12
-3.84955e-13
1.39337e-09
5.63916e-14
-4.50733e-13
1.39351e-09
5.12921e-13
-9.26567e-13
1.39408e-09
-1.70328e-12
1.1445e-12
1.39468e-09
6.57139e-13
-1.01192e-12
1.3944e-09
-9.25003e-14
2.39842e-13
1.39414e-09
-9.41488e-14
2.43623e-13
1.39389e-09
2.74585e-13
-1.25596e-13
1.39356e-09
5.25956e-13
-1.7191e-14
1.39362e-09
2.89025e-13
5.53474e-13
-1.60648e-12
6.76521e-13
1.59879e-09
-1.44871e-09
1.2669e-08
1.61988e-09
-1.20411e-09
4.03839e-09
2.56255e-08
1.27458e-08
-5.25295e-08
-6.22211e-09
-4.41234e-09
-5.06327e-09
-2.20721e-09
-3.64693e-09
-6.6143e-09
-8.16396e-09
-8.19934e-09
4.70826e-08
-5.31897e-10
-1.6007e-09
-1.43342e-09
-2.17745e-09
2.32773e-10
-1.44004e-09
2.9479e-09
-3.84792e-09
3.98602e-09
-2.00457e-08
1.75725e-08
-4.04013e-09
1.06059e-09
4.65739e-09
4.07237e-09
-1.03225e-08
1.00711e-09
3.97853e-09
-6.27604e-10
8.16311e-10
-5.17442e-09
-2.72814e-10
2.19281e-09
-5.25451e-10
7.18096e-10
-2.11264e-09
9.89791e-12
2.31262e-10
-1.61348e-10
-5.45519e-11
-5.21608e-11
9.37191e-12
-6.33091e-11
9.40348e-12
2.83978e-11
2.08473e-11
2.21962e-11
-1.18808e-10
1.70184e-11
-1.2283e-11
5.95308e-11
5.45414e-11
-1.93549e-10
1.96975e-10
-8.94656e-12
-7.15407e-12
1.37135e-09
-3.87613e-11
-2.2896e-11
-2.45311e-10
-2.50153e-10
-4.04727e-10
-4.13601e-10
1.38276e-09
-2.9539e-11
-2.09398e-12
1.38784e-09
-1.66949e-11
4.34046e-13
1.39104e-09
-1.0871e-11
-5.61613e-14
1.39277e-09
-6.63794e-12
5.90255e-14
1.39359e-09
-3.90502e-12
1.23503e-14
1.39398e-09
-2.37461e-12
1.11431e-14
1.39425e-09
-1.60791e-12
-1.10145e-14
1.39381e-09
-1.21128e-12
-1.93586e-12
1.39494e-09
-1.10846e-12
1.72336e-13
1.39473e-09
-6.05581e-13
9.19186e-14
1.395e-09
-3.44346e-13
4.61123e-13
1.39464e-09
-1.85291e-13
1.63594e-14
1.39441e-09
-4.04946e-13
-7.26733e-14
1.39437e-09
5.24996e-14
-5.35363e-13
1.39466e-09
9.53529e-14
6.41998e-13
1.3944e-09
-8.79249e-14
-1.54036e-13
1.39439e-09
2.7974e-14
1.50455e-14
1.39432e-09
8.59573e-13
-9.15928e-13
1.39527e-09
1.53331e-12
-2.10833e-12
1.39408e-09
2.01904e-13
1.93924e-12
1.39421e-09
4.90749e-13
-7.11505e-14
1.39365e-09
1.85998e-13
1.31232e-12
1.39384e-09
-1.48644e-13
4.18425e-14
1.39395e-09
7.32328e-14
5.21566e-14
1.3941e-09
4.51915e-13
-6.4717e-13
1.39392e-09
-5.20912e-14
8.49836e-14
1.39421e-09
-1.52704e-13
-1.31254e-13
1.39409e-09
2.41042e-13
-8.75782e-14
1.39385e-09
-5.29156e-13
4.77962e-13
1.39363e-09
1.33529e-12
4.3636e-14
1.39388e-09
-5.39221e-14
-1.43976e-13
1.39452e-09
3.36591e-13
-4.71685e-13
1.39363e-09
2.02649e-13
-1.01063e-12
1.39391e-09
-1.84028e-12
2.21092e-12
1.39419e-09
1.2485e-13
-4.98643e-13
1.3942e-09
9.00977e-14
-1.93806e-13
1.39436e-09
1.40936e-12
-1.28987e-12
1.39315e-09
1.62957e-12
1.08885e-13
1.39353e-09
-6.3515e-14
-2.94619e-14
-1.95008e-12
5.34277e-13
1.97189e-08
-2.08171e-09
-1.88949e-08
-5.95153e-09
2.94832e-09
6.91615e-09
-1.48792e-09
-2.71589e-09
-2.34781e-09
-1.77383e-09
5.90703e-09
-3.14882e-09
-5.09823e-09
7.39167e-10
-3.76126e-10
4.03825e-09
-3.96134e-09
-9.25008e-09
-2.32697e-08
-1.74763e-10
8.17527e-08
-4.86883e-08
-1.38116e-09
-8.12697e-09
2.15659e-08
-8.16868e-10
2.45178e-10
1.82084e-10
-6.25601e-10
4.62312e-09
7.74065e-09
-7.93179e-10
-2.25887e-08
-1.31443e-10
-8.69563e-10
2.17457e-10
-8.86499e-11
8.72225e-10
-1.09373e-11
5.59629e-11
3.42885e-10
-2.81445e-11
-1.86956e-10
-2.5796e-11
-9.01905e-11
-5.68132e-11
-1.05716e-10
-3.97119e-11
4.57282e-12
-1.68751e-11
1.57746e-10
-3.61791e-11
2.12361e-10
-8.23475e-12
-5.98587e-12
-3.79384e-11
-6.61583e-11
-7.05561e-11
1.26922e-11
1.41188e-09
-2.97462e-11
-2.41713e-11
-2.63185e-10
-2.62361e-10
-4.35107e-10
-4.36076e-10
1.40541e-09
-2.01935e-11
-2.89977e-12
1.40007e-09
-1.20811e-11
6.97744e-13
1.39922e-09
-1.08345e-11
7.66732e-13
1.39816e-09
-5.66173e-12
3.62559e-14
1.3964e-09
-1.54208e-12
-6.46259e-13
1.39532e-09
-6.0363e-13
-7.45979e-13
1.39531e-09
-1.62489e-12
-1.55771e-14
1.3948e-09
-6.41493e-13
-1.13928e-13
1.39397e-09
-2.25447e-13
-9.90553e-14
1.39558e-09
-3.15936e-12
8.87659e-13
1.39505e-09
1.10762e-13
2.76564e-14
1.39472e-09
7.19466e-14
3.05432e-14
1.39488e-09
1.6333e-13
-7.74928e-13
1.39478e-09
-1.04396e-13
2.01729e-13
1.3948e-09
3.10758e-13
-2.80099e-13
1.39483e-09
-2.45874e-13
9.42506e-14
1.39482e-09
-1.25167e-14
4.98439e-15
1.39468e-09
1.63424e-13
7.97005e-13
1.39384e-09
2.94076e-13
2.03874e-12
1.3939e-09
4.10786e-13
-3.1295e-13
1.39445e-09
1.91447e-13
-2.78243e-13
1.39384e-09
-4.49539e-13
1.20758e-12
1.39378e-09
3.25251e-14
-1.49065e-13
1.39392e-09
-5.7947e-14
-2.52956e-14
1.39385e-09
-7.21569e-14
5.74144e-13
1.39373e-09
7.86353e-14
-3.54249e-14
1.39368e-09
-1.07553e-13
-7.75946e-15
1.39351e-09
-1.09951e-13
5.10425e-13
1.39357e-09
-2.36996e-13
-3.59523e-13
1.39439e-09
-9.05461e-14
5.97816e-13
1.39429e-09
-3.49483e-13
3.89772e-13
1.3939e-09
-1.64648e-12
2.37694e-12
1.39395e-09
1.7412e-13
-2.05657e-14
1.39391e-09
-7.48486e-13
-1.05879e-12
1.39415e-09
8.5331e-14
-2.00178e-13
1.39465e-09
-4.08444e-13
3.89116e-15
1.39456e-09
-1.3908e-12
2.88396e-12
1.39328e-09
3.07046e-12
-1.59169e-13
1.39352e-09
-8.67144e-13
5.70914e-13
-1.74684e-13
-9.11063e-13
4.67388e-10
1.67426e-09
-6.06187e-11
-2.05607e-09
8.45265e-10
6.43213e-10
2.36467e-09
6.3419e-10
-4.48734e-09
-3.81613e-09
2.99286e-09
9.63714e-11
4.69291e-10
6.37441e-11
2.02276e-10
1.15944e-09
1.47361e-09
2.51719e-09
8.45216e-10
3.27292e-08
-4.0477e-08
-5.51643e-09
1.65084e-08
-1.79156e-09
-3.99555e-09
-3.47873e-09
2.74566e-09
2.76391e-09
-1.44541e-09
-1.19316e-09
-6.70981e-10
-2.85756e-10
-1.31591e-09
-5.98476e-10
2.60965e-10
1.40936e-09
-4.20102e-10
1.0156e-09
-2.26573e-09
9.97006e-11
-1.26131e-09
-4.40791e-11
-1.11047e-10
1.31673e-09
-2.72453e-11
2.2501e-10
5.49929e-10
-2.10163e-10
-1.93525e-10
-9.13757e-11
-5.96399e-11
-1.92991e-10
-1.32994e-10
1.92683e-11
-1.39986e-11
9.32181e-12
1.18429e-10
-3.61317e-11
7.92458e-12
1.94509e-10
-5.73297e-12
1.04519e-11
-3.60865e-11
-6.74737e-11
-6.74616e-11
1.43082e-09
-1.33742e-11
-2.64603e-11
-2.65142e-10
-2.68147e-10
-4.40911e-10
-4.46535e-10
1.41746e-09
-3.91926e-12
-2.93443e-12
1.4097e-09
-4.4565e-12
9.87278e-14
1.40319e-09
-3.16065e-12
-1.21405e-12
1.39975e-09
-2.10312e-12
-1.67352e-13
1.39864e-09
-1.09717e-12
6.10593e-13
1.39769e-09
-5.12964e-13
8.16791e-13
1.39647e-09
-5.195e-13
5.82199e-14
1.39641e-09
-9.71896e-13
3.42719e-13
1.39634e-09
-3.01569e-13
9.14682e-14
1.39426e-09
-3.2874e-13
-8.07817e-13
1.39495e-09
-9.94848e-13
3.67321e-13
1.39488e-09
4.44305e-14
4.36569e-14
1.39493e-09
2.15601e-13
-1.43271e-13
1.39446e-09
6.01625e-13
-2.86937e-13
1.3945e-09
-8.94529e-14
3.15077e-13
1.39497e-09
-1.09955e-12
3.47692e-13
1.39493e-09
-2.07783e-14
2.94391e-15
1.39491e-09
1.93022e-13
-4.73887e-14
1.39457e-09
8.24935e-13
-2.27611e-13
1.39348e-09
3.39277e-12
-1.92877e-12
1.3932e-09
-8.2435e-13
1.26054e-12
1.39417e-09
7.86397e-14
-1.52791e-12
1.39413e-09
5.31529e-14
-8.46822e-15
1.39398e-09
1.20681e-13
-5.38093e-14
1.39372e-09
8.63096e-13
-7.01484e-13
1.39375e-09
2.07453e-14
8.43873e-15
1.39374e-09
-2.03968e-13
9.65044e-14
1.39392e-09
-1.61541e-14
-2.82776e-13
1.39364e-09
-6.82373e-13
7.12085e-13
1.39431e-09
-5.96129e-13
-1.69742e-13
1.39442e-09
-6.70611e-13
2.04422e-13
1.39391e-09
1.98252e-14
-1.15154e-12
1.39404e-09
9.67638e-14
-5.37966e-14
1.39343e-09
-3.52143e-13
2.06225e-13
1.39333e-09
-8.53566e-14
2.73521e-13
1.39316e-09
-1.4096e-13
-9.69939e-14
1.39326e-09
1.37032e-12
-2.85405e-12
1.39508e-09
1.08479e-12
1.62847e-13
1.39488e-09
-4.8541e-13
-1.77093e-13
-8.51964e-13
1.9901e-12
5.15963e-09
2.16657e-09
-8.91143e-09
-9.20753e-10
1.1875e-09
-8.85627e-11
1.59802e-09
-2.96726e-09
-3.93362e-10
3.65466e-08
-6.92431e-08
5.46011e-08
-9.68708e-09
5.0894e-10
4.86392e-10
-1.01263e-10
-2.28771e-09
-2.81373e-10
-3.41984e-09
-6.62046e-10
-2.02742e-09
-1.21162e-09
-1.56108e-09
1.70212e-09
-1.23508e-09
-1.74227e-09
4.79759e-09
-1.57888e-10
-1.66235e-09
8.36898e-10
-3.52539e-10
1.08618e-09
-5.34904e-10
-1.39533e-09
-2.80561e-10
2.83412e-10
3.56865e-10
-1.95937e-09
2.44957e-09
-3.99141e-09
-3.41578e-09
1.54383e-10
1.15673e-08
-4.07043e-09
-4.83981e-10
1.35562e-10
-1.61545e-10
-2.22909e-10
-3.96864e-10
-1.56578e-10
-1.63474e-10
2.48402e-10
4.68513e-10
-4.03138e-11
3.19664e-10
-2.35427e-10
-9.17038e-10
3.71765e-11
7.76749e-10
3.06023e-11
-1.32646e-11
2.37971e-11
-2.91556e-12
2.09582e-11
-1.53891e-10
6.40606e-11
-3.61126e-11
-1.56044e-11
1.41548e-10
-3.67615e-11
-8.37034e-13
1.95263e-10
-4.24912e-13
1.08059e-11
-6.74119e-11
-3.56558e-11
-6.4977e-11
1.42105e-09
-2.36204e-11
-2.47194e-11
-2.61148e-10
-2.58459e-10
-4.34061e-10
-4.32422e-10
1.41537e-09
3.55997e-12
-1.83818e-12
1.40936e-09
7.80048e-13
7.18532e-13
1.40462e-09
1.37673e-12
1.51084e-13
1.40123e-09
9.96051e-13
2.33299e-13
1.39893e-09
1.25169e-12
-9.52603e-14
1.39774e-09
6.02065e-13
1.72789e-14
1.39684e-09
2.87301e-13
4.1186e-14
1.39589e-09
-2.83457e-14
-4.87101e-14
1.39605e-09
-6.27698e-13
1.09133e-13
1.39561e-09
3.40387e-13
-2.93675e-13
1.39491e-09
-1.91216e-14
-3.28348e-13
1.39489e-09
7.41714e-14
-5.82304e-14
1.39471e-09
1.91615e-13
1.54702e-13
1.39486e-09
3.91786e-14
3.67362e-13
1.39468e-09
1.23485e-13
-7.69785e-14
1.39422e-09
-3.12353e-13
-3.72528e-13
1.39456e-09
-6.58385e-13
2.6159e-13
1.39533e-09
-6.35437e-13
1.27744e-14
1.3929e-09
7.70571e-12
-4.48264e-12
1.39361e-09
-1.43751e-12
4.08849e-12
1.39415e-09
-4.43016e-13
-9.55512e-13
1.39412e-09
-1.78813e-13
2.50543e-13
1.39413e-09
-7.93125e-14
9.43547e-14
1.39402e-09
6.81637e-14
1.36136e-13
1.39421e-09
9.83057e-14
5.50932e-13
1.3941e-09
1.65505e-13
-4.33197e-14
1.39386e-09
5.39462e-14
-3.9638e-14
1.39399e-09
1.02678e-14
-1.62872e-13
1.39382e-09
1.37957e-13
-6.59204e-13
1.3941e-09
4.57544e-13
-1.34484e-12
1.39388e-09
2.26762e-14
-4.6878e-13
1.39394e-09
-1.67171e-13
1.23503e-13
1.39371e-09
3.43502e-13
-1.854e-14
1.39354e-09
1.95481e-13
-3.82644e-13
1.39356e-09
-8.78994e-14
-1.63286e-14
1.39333e-09
9.26672e-14
-1.89377e-15
1.39375e-09
-7.14803e-13
1.66874e-12
1.39414e-09
6.3652e-13
5.93534e-14
1.3944e-09
-2.18522e-13
-5.28483e-13
-1.9428e-13
-1.46316e-12
-2.61508e-09
-9.37666e-10
4.40746e-09
4.69792e-10
-2.34771e-11
-1.3005e-09
1.90475e-10
1.73477e-09
1.32323e-09
2.93053e-09
-6.27517e-09
2.86649e-10
5.02758e-10
1.08466e-09
2.3995e-09
-7.1104e-09
3.12349e-09
2.5349e-09
-2.53408e-09
9.08768e-10
-5.08089e-10
3.28272e-09
-1.54379e-09
-1.13082e-10
-2.02732e-09
-1.68489e-09
-5.68038e-09
-3.79022e-09
2.18849e-08
-1.07294e-08
5.54112e-11
8.93983e-11
5.90373e-10
4.4312e-10
-1.1783e-09
-6.65238e-11
6.46093e-11
-1.18535e-10
-3.16189e-11
-8.00434e-11
-1.06205e-11
-3.08024e-11
-8.57709e-11
-1.31136e-10
-3.48408e-11
1.10639e-10
1.41144e-10
1.54355e-10
1.19132e-10
-1.5296e-10
-1.56857e-11
1.55857e-11
1.05523e-10
4.7537e-11
1.48232e-09
7.1432e-11
-3.00144e-11
-2.79173e-10
-2.73212e-10
-4.69268e-10
-4.58279e-10
-5.68637e-12
-1.14686e-11
-7.37779e-12
-1.92612e-11
1.43798e-09
2.31849e-11
-2.55757e-12
1.42171e-09
1.98248e-11
-7.06288e-14
1.41091e-09
1.15959e-11
-6.92864e-14
1.40466e-09
7.605e-12
-3.73563e-14
1.40093e-09
4.68726e-12
-1.06411e-14
1.39883e-09
3.0627e-12
2.35122e-13
1.39726e-09
2.08305e-12
2.81217e-14
1.39665e-09
-1.21278e-13
9.64095e-13
1.39618e-09
-2.49253e-14
4.05399e-13
1.3956e-09
1.80643e-12
-1.91695e-12
1.39548e-09
1.2437e-13
2.73073e-13
1.3951e-09
2.4094e-13
6.13533e-14
1.39487e-09
1.65669e-13
9.05605e-14
1.39473e-09
-2.47506e-13
5.28791e-13
1.3947e-09
-1.13209e-14
2.89926e-14
1.39443e-09
1.76856e-13
1.80393e-13
1.39415e-09
-4.78677e-13
4.02874e-13
1.39377e-09
-3.57834e-14
-2.81716e-13
1.39226e-09
9.43166e-13
-1.05901e-13
1.39475e-09
3.50499e-13
4.83146e-12
1.39513e-09
9.73948e-13
-2.83121e-12
1.39491e-09
-2.84404e-12
2.5867e-12
1.39443e-09
2.0953e-13
6.44651e-14
1.39414e-09
6.00456e-15
1.76994e-13
1.39406e-09
1.37633e-13
-1.87787e-14
1.39414e-09
-6.79576e-14
6.37439e-14
1.39413e-09
6.47746e-13
-4.86313e-13
1.39414e-09
-2.37836e-13
2.66407e-13
1.39385e-09
4.16348e-13
-1.26541e-13
1.39427e-09
-2.48972e-13
-4.69163e-14
1.39368e-09
-4.01654e-13
1.44293e-12
1.39368e-09
-1.44382e-13
1.70415e-13
1.3937e-09
-1.94206e-14
-1.77549e-13
1.39372e-09
1.86237e-14
3.10377e-13
1.39379e-09
1.20252e-14
1.15858e-13
1.39363e-09
7.69929e-14
-8.57341e-15
1.39319e-09
5.18114e-13
1.66376e-14
1.39372e-09
-1.04881e-12
-1.96192e-13
1.39348e-09
6.26624e-13
2.50307e-13
1.39495e-09
-3.56701e-12
1.88406e-12
-2.77601e-13
-5.2706e-13
-4.02946e-09
6.77849e-09
4.80933e-09
-7.36739e-09
9.1409e-10
-6.44048e-09
4.43533e-09
7.23482e-09
-2.8757e-10
-3.42805e-09
-7.52389e-10
-1.67576e-09
-1.1724e-08
-1.41828e-08
-5.98061e-09
-9.54722e-09
4.14346e-08
6.64753e-10
1.86677e-09
5.49788e-09
-5.91808e-09
-2.11133e-09
7.6119e-10
2.652e-10
5.99933e-10
2.28791e-10
-9.45754e-11
-1.43449e-10
-3.27297e-10
-1.14833e-08
2.41216e-08
-1.83764e-08
4.44436e-09
-6.52138e-11
3.92068e-10
7.0761e-11
2.78801e-10
-6.76416e-10
-7.17185e-11
5.60347e-11
-3.65036e-11
-6.15677e-12
5.83446e-11
-4.37588e-11
-1.74302e-12
1.9886e-10
1.11728e-11
4.31862e-11
-4.23701e-11
-7.89515e-11
-7.79983e-11
-2.80087e-12
-2.70647e-12
-2.88508e-12
1.4386e-09
7.9336e-11
-2.88675e-11
-2.64833e-10
-2.66869e-10
-4.38905e-10
-4.47074e-10
1.41739e-09
4.61558e-11
-1.87243e-12
1.40852e-09
2.83129e-11
3.21774e-13
1.40287e-09
1.72507e-11
-5.33913e-14
1.39964e-09
1.07571e-11
1.99265e-14
1.39797e-09
6.26936e-12
3.2773e-14
1.39685e-09
4.09084e-12
4.06603e-14
1.39691e-09
1.62729e-12
3.3492e-13
1.39611e-09
1.62466e-12
-1.00417e-12
1.39536e-09
1.35989e-12
-7.05049e-13
1.39494e-09
2.60081e-13
1.90828e-12
1.3948e-09
1.91122e-13
1.02044e-14
1.39476e-09
2.59752e-13
-4.24517e-14
1.39427e-09
8.23292e-13
-2.15639e-13
1.39448e-09
-1.05807e-13
-4.02342e-13
1.39428e-09
1.5305e-13
-7.94012e-15
1.39453e-09
-4.04922e-14
-8.34137e-14
1.39494e-09
-5.82963e-13
-3.41663e-13
1.39374e-09
-9.52553e-13
2.07382e-12
1.39455e-09
-7.56482e-14
1.74265e-13
1.39457e-09
3.5496e-13
-6.09522e-14
1.39447e-09
1.62013e-13
8.8319e-13
1.39417e-09
-2.63077e-14
-2.55623e-12
1.39431e-09
1.43174e-13
-1.04377e-13
1.39395e-09
8.99366e-13
-5.58235e-13
1.39381e-09
6.6184e-14
1.77005e-13
1.39385e-09
7.04586e-14
-1.94064e-13
1.39385e-09
1.56322e-13
4.75253e-13
1.39378e-09
3.07412e-14
-2.17944e-13
1.39438e-09
-3.46627e-13
1.5683e-13
1.39395e-09
8.68422e-13
-7.00164e-13
1.39396e-09
-3.42505e-13
-7.1413e-14
1.39406e-09
-2.98268e-13
4.72162e-14
1.3935e-09
1.99483e-12
-1.45138e-12
1.39396e-09
-2.89891e-14
-4.14381e-13
1.39368e-09
3.69609e-13
-7.93638e-14
1.39405e-09
-7.26163e-13
4.27793e-13
1.39452e-09
-1.89138e-13
2.46033e-13
1.39339e-09
4.39501e-13
-3.55898e-13
1.39375e-09
3.86031e-13
-1.20371e-13
1.39338e-09
9.19819e-13
-4.12343e-12
-1.89957e-12
-1.94717e-15
3.61263e-09
-1.11052e-09
-5.42916e-10
5.0925e-10
-2.99569e-10
1.25713e-09
-6.52282e-10
5.45594e-09
2.26096e-09
-7.38304e-09
-1.07059e-09
-3.47329e-09
-1.93437e-10
-1.39297e-09
-1.46608e-09
3.71383e-08
-8.58831e-10
-2.32075e-08
-2.76928e-09
-4.72142e-09
-2.16745e-09
9.0057e-09
-9.78012e-10
-1.40866e-10
-1.93675e-09
1.04487e-09
2.01076e-09
5.65064e-10
1.68473e-09
4.38589e-09
-1.11136e-08
4.47794e-09
-3.77663e-10
-5.02548e-10
3.41525e-10
2.95913e-10
2.4276e-10
-1.35431e-10
-6.06745e-11
1.0301e-10
-1.67046e-11
1.098e-10
-3.37913e-11
-1.91628e-11
1.84783e-10
1.57552e-11
1.01472e-11
-3.3084e-11
-6.32232e-11
-6.14223e-11
1.3744e-09
-2.8244e-11
-2.4901e-10
-2.48854e-10
-4.14504e-10
-4.15735e-10
1.38369e-09
-1.92481e-12
1.38879e-09
4.07713e-13
1.39087e-09
5.9034e-14
1.39151e-09
-7.00272e-15
1.39407e-09
2.22107e-13
1.39496e-09
-9.86793e-14
1.39452e-09
-6.02804e-13
1.39466e-09
2.01425e-14
1.39493e-09
1.76133e-13
1.3953e-09
6.51611e-13
1.39381e-09
-1.33438e-12
1.39408e-09
2.40133e-13
1.39458e-09
3.06134e-13
1.39432e-09
8.80644e-14
1.39422e-09
4.31208e-14
1.39412e-09
5.66902e-13
1.39429e-09
1.47263e-12
1.39481e-09
-2.02244e-12
1.39444e-09
4.86981e-14
1.39474e-09
-3.39312e-13
1.39459e-09
-4.28111e-13
1.39433e-09
-1.83672e-12
1.39367e-09
1.26409e-12
1.3939e-09
-1.76564e-13
1.3939e-09
5.57796e-13
1.39391e-09
2.49275e-13
1.39394e-09
7.58597e-14
1.39394e-09
-2.06477e-14
1.39369e-09
2.62074e-14
1.39433e-09
7.48132e-13
1.39405e-09
1.38757e-13
1.39402e-09
-2.34302e-13
1.39441e-09
1.96743e-12
1.39373e-09
-3.47183e-12
1.39392e-09
1.3066e-13
1.39377e-09
-6.87086e-13
1.39408e-09
-6.82344e-14
1.3942e-09
1.51772e-13
1.39479e-09
-2.63177e-13
1.39355e-09
2.37348e-12
5.23572e-14
-2.80094e-11
-4.70455e-09
5.19812e-09
3.10672e-10
1.09976e-09
5.28665e-10
6.39768e-10
1.67761e-09
-1.44819e-08
3.75274e-08
2.6821e-10
-1.57631e-09
-3.56127e-08
-7.91811e-10
3.69236e-09
8.74508e-09
-2.34164e-09
-8.41981e-09
-1.72898e-09
5.18298e-10
-2.75714e-09
7.06604e-10
3.85803e-09
-8.41264e-10
-2.32258e-10
-1.37024e-09
-7.98251e-10
9.79849e-10
3.15866e-10
-7.56441e-11
4.14731e-10
-1.00279e-09
-3.27633e-11
1.22752e-10
7.69767e-11
-6.5939e-11
8.51498e-11
-1.29493e-10
5.6011e-10
3.95201e-11
-1.95852e-11
-6.36642e-12
-1.23773e-10
-1.34507e-10
-1.28495e-10
2.20694e-09
1.93523e-11
2.56534e-11
-5.46437e-10
-5.3865e-10
-5.4609e-10
-5.38661e-10
2.25247e-09
1.91591e-11
1.43566e-12
2.28113e-09
1.20707e-11
-4.60018e-13
2.29885e-09
8.71859e-12
-5.2509e-13
2.31041e-09
5.71762e-12
-5.54387e-13
2.3145e-09
2.54081e-12
5.91739e-13
2.31768e-09
2.27437e-12
2.2627e-13
2.32074e-09
7.81334e-13
2.34667e-13
2.32181e-09
1.35546e-12
-8.47415e-14
2.32245e-09
3.76023e-13
4.44682e-13
2.32261e-09
-2.11755e-13
1.88416e-13
2.32435e-09
4.93266e-13
1.55566e-12
2.32413e-09
1.85507e-13
-5.78798e-13
2.32372e-09
3.28049e-13
3.74186e-14
2.32387e-09
-1.18374e-12
5.78202e-13
2.32392e-09
7.12861e-13
-2.70745e-13
2.32379e-09
6.98585e-13
-1.76023e-13
2.3237e-09
-2.09312e-12
2.98711e-12
2.32405e-09
5.68533e-13
-1.29584e-13
2.32425e-09
1.50257e-13
-8.29078e-14
2.32341e-09
6.23407e-13
1.58491e-12
2.32378e-09
3.64388e-13
-8.94895e-13
2.3227e-09
5.84258e-12
-1.60277e-12
2.32259e-09
4.54136e-12
-3.0241e-12
2.32317e-09
-1.42864e-13
-8.27151e-13
2.32417e-09
4.19288e-13
-2.2302e-12
2.32364e-09
1.64008e-13
-1.09464e-14
2.32325e-09
3.31659e-13
1.83899e-13
2.32243e-09
8.16277e-13
4.27846e-14
2.32226e-09
-1.39828e-12
8.0574e-13
2.32481e-09
-7.33961e-13
-1.78923e-12
2.32396e-09
8.13622e-13
-1.32826e-13
2.32358e-09
3.05381e-13
4.85224e-14
2.32377e-09
-5.19881e-15
-2.20002e-13
2.32507e-09
-4.63693e-13
1.47073e-12
2.32266e-09
3.70588e-12
-2.88448e-12
2.323e-09
-4.57481e-13
-3.55607e-13
2.32305e-09
-2.18597e-12
1.05198e-12
2.32404e-09
-8.4154e-13
-2.29271e-13
2.32366e-09
2.41401e-13
1.68856e-13
2.32261e-09
6.65701e-13
7.54227e-13
-5.73598e-13
-4.20043e-13
7.40092e-09
-6.04182e-09
-1.10612e-08
1.48198e-09
4.1691e-11
1.74384e-09
1.55096e-09
2.83877e-09
3.29024e-09
-7.28049e-10
-1.06706e-09
-5.50998e-10
-5.02596e-10
5.08434e-11
4.93242e-10
3.72149e-10
3.23907e-09
-1.50833e-10
7.42646e-10
-4.6759e-10
3.82308e-09
-3.62629e-10
-4.99422e-09
-2.38442e-09
-1.9703e-09
3.33799e-09
-2.56847e-09
9.3366e-10
4.18531e-09
5.36514e-09
1.82935e-09
3.06572e-09
-2.66758e-10
-5.24783e-09
-4.74563e-09
-4.83738e-10
1.75881e-10
-3.28569e-10
3.24159e-10
3.43079e-11
2.77944e-10
-1.32407e-10
-1.90026e-10
-6.06576e-12
3.2841e-12
2.66162e-10
5.90523e-11
-1.23181e-10
5.3838e-10
-1.0548e-12
-1.8672e-12
-2.11344e-12
-1.30263e-10
-1.27957e-10
-1.3493e-10
-1.70149e-11
2.20946e-09
-8.48805e-11
2.34306e-11
-5.37506e-10
-5.38596e-10
-5.37503e-10
-5.38611e-10
2.24407e-09
-1.86937e-11
1.60031e-12
2.27558e-09
-1.87982e-11
-3.48218e-13
2.29383e-09
-9.58595e-12
-1.63358e-14
2.30577e-09
-6.15128e-12
-5.22631e-14
2.31246e-09
-4.10744e-12
-6.72274e-14
2.31714e-09
-2.50932e-12
-3.5881e-15
2.31927e-09
-1.57471e-12
4.93039e-14
2.32151e-09
-7.54611e-13
-2.28859e-14
2.32277e-09
8.21362e-13
-1.13831e-12
2.32263e-09
1.5677e-12
-9.06017e-13
2.32313e-09
-3.64684e-14
-1.29737e-14
2.32408e-09
-1.31819e-12
4.32063e-13
2.32397e-09
2.17976e-13
1.48742e-13
2.32366e-09
6.23253e-13
-1.38233e-13
2.32466e-09
-2.89747e-12
1.15211e-12
2.32439e-09
1.2392e-13
1.02486e-12
2.3231e-09
-1.01008e-13
-1.60044e-12
2.32337e-09
3.23104e-13
-2.69516e-14
2.32362e-09
-3.35233e-13
7.76559e-14
2.32211e-09
2.97418e-12
6.50317e-13
2.32227e-09
-1.72985e-13
5.00343e-13
2.32328e-09
7.16189e-13
2.14758e-12
2.32343e-09
9.27952e-13
1.71128e-12
2.32474e-09
-2.20048e-12
2.50262e-12
2.32433e-09
1.43531e-12
3.04676e-12
2.3237e-09
8.45037e-13
-8.53559e-14
2.32389e-09
1.20647e-13
-1.39354e-13
2.3244e-09
3.97243e-13
-1.10498e-13
2.32444e-09
-3.91305e-13
-6.91476e-13
2.32209e-09
-6.6866e-13
1.80374e-12
2.32261e-09
5.60225e-13
-6.62778e-13
2.32256e-09
1.2618e-12
-4.96804e-13
2.32264e-09
4.82146e-13
-3.21843e-13
2.32254e-09
-1.73188e-13
-1.29967e-13
2.32463e-09
1.88318e-13
3.00659e-12
2.32409e-09
4.13389e-13
-1.53376e-13
2.32375e-09
-7.98547e-14
-8.88828e-13
2.32311e-09
9.30874e-15
1.61648e-14
2.32316e-09
3.02965e-13
-2.11524e-13
2.32322e-09
-2.68261e-13
-3.23515e-13
-3.65252e-13
2.13277e-13
-4.40146e-09
2.81725e-09
-2.52916e-09
2.86956e-09
2.30964e-09
1.74085e-09
4.22223e-10
-5.35615e-10
4.97893e-09
-3.57503e-09
-1.6514e-10
-5.509e-09
7.92797e-10
1.45436e-09
1.44542e-09
-3.91317e-09
1.46255e-09
-2.58843e-09
-1.13915e-09
1.91164e-08
3.54874e-09
4.55238e-09
3.02513e-09
7.15972e-09
2.53126e-08
-4.14371e-08
1.40611e-08
-3.53446e-08
2.08559e-10
3.28967e-10
1.14483e-09
-2.82374e-09
7.25896e-10
4.11738e-10
-7.13315e-11
7.48561e-10
-4.08267e-08
6.66852e-08
5.50264e-08
-8.15596e-08
2.49914e-10
-6.63885e-10
3.92692e-10
-5.31419e-10
9.99439e-11
4.52741e-10
4.03313e-11
3.03676e-11
-1.53631e-11
-1.44549e-10
-2.38597e-11
1.13073e-10
-1.26085e-10
-1.7176e-11
8.96352e-12
-9.28822e-12
9.40304e-12
1.34185e-10
2.27558e-09
-3.366e-11
2.81695e-11
-5.68507e-10
-5.61172e-10
-5.68503e-10
-5.61213e-10
-4.48192e-11
-3.36542e-11
-4.48162e-11
2.27045e-09
-1.81852e-11
2.28048e-12
2.29037e-09
-3.86051e-11
-1.47119e-13
2.30219e-09
-2.14145e-11
-1.80558e-14
2.3105e-09
-1.44601e-11
-9.94694e-14
2.31543e-09
-9.13495e-12
1.94847e-14
2.31859e-09
-5.74229e-12
-1.04645e-14
2.32079e-09
-3.60286e-12
-1.4423e-13
2.32209e-09
-2.42744e-12
1.52035e-13
2.32366e-09
-1.02453e-12
1.41757e-12
2.32319e-09
-9.11881e-14
1.07956e-12
2.32422e-09
-1.2703e-12
1.68306e-14
2.32337e-09
-1.77193e-12
7.47771e-13
2.32437e-09
-8.70541e-13
-7.99546e-14
2.32415e-09
1.76841e-12
-1.16085e-12
2.3236e-09
7.63239e-14
-1.12712e-12
2.32278e-09
-1.31971e-12
1.62367e-12
2.3231e-09
-6.27966e-13
2.49136e-13
2.32283e-09
1.01807e-13
2.21775e-13
2.32244e-09
4.97066e-13
-2.97644e-13
2.32375e-09
8.65046e-13
-1.12851e-12
2.32441e-09
-4.25975e-12
1.67408e-12
2.32415e-09
1.17883e-12
-2.32278e-13
2.32566e-09
-2.96495e-12
1.08117e-12
2.32368e-09
3.72991e-13
-2.38414e-12
2.32282e-09
1.95563e-13
-9.97387e-13
2.32328e-09
2.8618e-13
1.03065e-13
2.32359e-09
-1.11707e-13
-2.86436e-14
2.32373e-09
1.48645e-13
4.4466e-14
2.32355e-09
3.85053e-14
-6.37163e-15
2.32304e-09
-5.04678e-13
-6.79416e-15
2.32215e-09
-4.20662e-13
1.4752e-12
2.32229e-09
2.60128e-13
3.98942e-13
2.32262e-09
-2.58656e-13
-5.20343e-13
2.32363e-09
1.54784e-12
-1.5841e-12
2.3245e-09
-2.65962e-12
9.62531e-13
2.32419e-09
1.19152e-12
-2.27302e-13
2.32389e-09
7.04126e-13
-2.37447e-13
2.32323e-09
4.67845e-13
7.69386e-14
2.32262e-09
7.7481e-13
1.24322e-13
2.3228e-09
4.63491e-13
-3.58231e-13
-2.26541e-12
1.27292e-12
3.12263e-09
6.10933e-09
6.87202e-09
3.12419e-09
-2.08375e-09
-3.59029e-09
-3.05463e-09
-2.63198e-09
-1.11204e-09
-2.21238e-09
5.59856e-09
-1.11153e-09
1.9465e-08
-4.35069e-09
2.87112e-09
1.3407e-08
5.52991e-09
2.28919e-08
2.88337e-09
-9.30705e-09
-5.3386e-08
2.17156e-08