/*--------------------------------*- C++ -*----------------------------------*\
| =========                 |                                                 |
| \\      /  F ield         | OpenFOAM: The Open Source CFD Toolbox           |
|  \\    /   O peration     | Version:  5.0                                   |
|   \\  /    A nd           | Web:      www.OpenFOAM.org                      |
|    \\/     M anipulation  |                                                 |
\*---------------------------------------------------------------------------*/
FoamFile
{
    version     2.0;
    format      ascii;
    class       volScalarField;
    location    "5";
    object      rAU;
}
// * * * * * * * * * * * * * * * * * * * * * * * * * * * * * * * * * * * * * //

dimensions      [-1 3 1 0 0 0 0];

internalField   nonuniform List<scalar> 
9655
(
9.61841e-07
9.56691e-07
8.85506e-07
6.68293e-07
8.8859e-07
6.90289e-07
3.81345e-07
1.29724e-07
3.93454e-07
3.94697e-07
3.95731e-07
3.96763e-07
3.97795e-07
3.98827e-07
3.99857e-07
4.00886e-07
4.01916e-07
4.02944e-07
4.03972e-07
4.04999e-07
4.06025e-07
4.0705e-07
4.08076e-07
4.09099e-07
4.10123e-07
4.11145e-07
4.12167e-07
4.13188e-07
4.14209e-07
4.15228e-07
4.16246e-07
4.17265e-07
4.18282e-07
4.19298e-07
4.20314e-07
4.21329e-07
4.22342e-07
4.23356e-07
4.24368e-07
4.2538e-07
4.26391e-07
4.27401e-07
4.28409e-07
4.29418e-07
4.30425e-07
4.31432e-07
4.32438e-07
4.33443e-07
4.34447e-07
4.36223e-07
9.64211e-07
9.63275e-07
9.56976e-07
8.95951e-07
8.96268e-07
6.7465e-07
6.69232e-07
1.29627e-07
3.93456e-07
3.94698e-07
3.95731e-07
3.96764e-07
3.97795e-07
3.98827e-07
3.99857e-07
4.00887e-07
4.01916e-07
4.02944e-07
4.03972e-07
4.04999e-07
4.06025e-07
4.0705e-07
4.08076e-07
4.09099e-07
4.10123e-07
4.11145e-07
4.12167e-07
4.13188e-07
4.14209e-07
4.15228e-07
4.16246e-07
4.17265e-07
4.18282e-07
4.19298e-07
4.20314e-07
4.21329e-07
4.22342e-07
4.23356e-07
4.24368e-07
4.2538e-07
4.26391e-07
4.27401e-07
4.28409e-07
4.29418e-07
4.30425e-07
4.31432e-07
4.32438e-07
4.33443e-07
4.34447e-07
4.36223e-07
9.66559e-07
9.62879e-07
8.92258e-07
8.91713e-07
9.00198e-07
6.69041e-07
6.99339e-07
3.53143e-08
3.93322e-07
3.94698e-07
3.95732e-07
3.96764e-07
3.97795e-07
3.98827e-07
3.99857e-07
4.00887e-07
4.01916e-07
4.02944e-07
4.03972e-07
4.04999e-07
4.06025e-07
4.0705e-07
4.08076e-07
4.09099e-07
4.10123e-07
4.11145e-07
4.12167e-07
4.13188e-07
4.14209e-07
4.15228e-07
4.16246e-07
4.17265e-07
4.18282e-07
4.19298e-07
4.20314e-07
4.21329e-07
4.22342e-07
4.23356e-07
4.24368e-07
4.2538e-07
4.26391e-07
4.27401e-07
4.28409e-07
4.29418e-07
4.30425e-07
4.31432e-07
4.32438e-07
4.33443e-07
4.34447e-07
4.36223e-07
9.58907e-07
9.5804e-07
9.65634e-07
8.88774e-07
6.88472e-07
6.76082e-07
9.035e-07
6.48774e-08
1.30269e-07
3.94488e-07
3.95732e-07
3.96764e-07
3.97795e-07
3.98827e-07
3.99857e-07
4.00887e-07
4.01916e-07
4.02944e-07
4.03972e-07
4.04999e-07
4.06025e-07
4.0705e-07
4.08076e-07
4.09099e-07
4.10123e-07
4.11145e-07
4.12167e-07
4.13188e-07
4.14209e-07
4.15228e-07
4.16246e-07
4.17265e-07
4.18282e-07
4.19298e-07
4.20314e-07
4.21329e-07
4.22342e-07
4.23356e-07
4.24368e-07
4.2538e-07
4.26391e-07
4.27401e-07
4.28409e-07
4.29418e-07
4.30425e-07
4.31432e-07
4.32438e-07
4.33443e-07
4.34447e-07
4.36223e-07
8.80491e-07
8.71431e-07
8.86226e-07
7.85638e-07
8.34953e-07
6.7298e-07
9.027e-07
6.47163e-07
1.30173e-07
3.94486e-07
3.95731e-07
3.96763e-07
3.97795e-07
3.98826e-07
3.99857e-07
4.00887e-07
4.01916e-07
4.02944e-07
4.03972e-07
4.04999e-07
4.06025e-07
4.0705e-07
4.08076e-07
4.09099e-07
4.10123e-07
4.11145e-07
4.12167e-07
4.13188e-07
4.14209e-07
4.15228e-07
4.16246e-07
4.17265e-07
4.18282e-07
4.19298e-07
4.20314e-07
4.21329e-07
4.22342e-07
4.23356e-07
4.24368e-07
4.2538e-07
4.26391e-07
4.274e-07
4.28409e-07
4.29418e-07
4.30425e-07
4.31432e-07
4.32438e-07
4.33443e-07
4.34447e-07
4.36223e-07
6.59892e-07
2.18825e-07
8.5008e-07
8.46128e-07
3.90833e-07
4.43923e-07
9.02322e-07
6.09325e-07
1.30176e-07
3.94485e-07
3.9573e-07
3.96763e-07
3.97795e-07
3.98826e-07
3.99857e-07
4.00886e-07
4.01916e-07
4.02944e-07
4.03972e-07
4.04999e-07
4.06025e-07
4.0705e-07
4.08076e-07
4.09099e-07
4.10123e-07
4.11145e-07
4.12167e-07
4.13188e-07
4.14209e-07
4.15228e-07
4.16246e-07
4.17265e-07
4.18282e-07
4.19298e-07
4.20314e-07
4.21329e-07
4.22342e-07
4.23356e-07
4.24368e-07
4.2538e-07
4.26391e-07
4.274e-07
4.28409e-07
4.29418e-07
4.30425e-07
4.31432e-07
4.32438e-07
4.33443e-07
4.34447e-07
4.36223e-07
8.80915e-07
6.42331e-07
3.02887e-07
9.0029e-07
8.62758e-07
6.97132e-07
9.017e-07
3.47541e-07
1.30049e-07
3.94485e-07
3.9573e-07
3.96762e-07
3.97794e-07
3.98826e-07
3.99857e-07
4.00886e-07
4.01916e-07
4.02944e-07
4.03972e-07
4.04999e-07
4.06025e-07
4.0705e-07
4.08076e-07
4.09099e-07
4.10123e-07
4.11145e-07
4.12167e-07
4.13188e-07
4.14208e-07
4.15228e-07
4.16246e-07
4.17265e-07
4.18282e-07
4.19298e-07
4.20314e-07
4.21329e-07
4.22342e-07
4.23356e-07
4.24368e-07
4.2538e-07
4.26391e-07
4.27401e-07
4.28409e-07
4.29418e-07
4.30425e-07
4.31432e-07
4.32438e-07
4.33443e-07
4.34447e-07
4.36223e-07
8.92214e-07
4.70946e-07
3.31544e-07
8.6049e-07
7.14643e-07
6.7968e-07
9.02963e-07
4.53401e-08
3.93316e-07
3.94694e-07
3.95729e-07
3.96762e-07
3.97794e-07
3.98826e-07
3.99857e-07
4.00886e-07
4.01916e-07
4.02944e-07
4.03972e-07
4.04999e-07
4.06025e-07
4.0705e-07
4.08076e-07
4.09099e-07
4.10123e-07
4.11145e-07
4.12167e-07
4.13188e-07
4.14208e-07
4.15228e-07
4.16246e-07
4.17265e-07
4.18282e-07
4.19298e-07
4.20314e-07
4.21329e-07
4.22342e-07
4.23356e-07
4.24368e-07
4.2538e-07
4.26391e-07
4.27401e-07
4.28409e-07
4.29418e-07
4.30425e-07
4.31432e-07
4.32438e-07
4.33443e-07
4.34447e-07
4.36223e-07
8.92814e-07
8.71685e-07
6.49264e-07
8.76679e-07
7.3498e-07
6.90262e-07
7.01188e-07
1.29451e-07
3.9345e-07
3.94695e-07
3.95729e-07
3.96762e-07
3.97794e-07
3.98826e-07
3.99857e-07
4.00886e-07
4.01916e-07
4.02944e-07
4.03972e-07
4.04999e-07
4.06025e-07
4.0705e-07
4.08076e-07
4.09099e-07
4.10123e-07
4.11145e-07
4.12167e-07
4.13188e-07
4.14209e-07
4.15228e-07
4.16246e-07
4.17265e-07
4.18282e-07
4.19298e-07
4.20314e-07
4.21329e-07
4.22342e-07
4.23356e-07
4.24368e-07
4.2538e-07
4.26391e-07
4.274e-07
4.28409e-07
4.29418e-07
4.30425e-07
4.31432e-07
4.32438e-07
4.33443e-07
4.34447e-07
4.36223e-07
9.60362e-07
9.53273e-07
8.81446e-07
8.84574e-07
7.97409e-07
6.49481e-07
6.68663e-07
1.29724e-07
3.93451e-07
3.94695e-07
3.9573e-07
3.96763e-07
3.97795e-07
3.98826e-07
3.99857e-07
4.00886e-07
4.01916e-07
4.02944e-07
4.03972e-07
4.04999e-07
4.06025e-07
4.0705e-07
4.08076e-07
4.09099e-07
4.10123e-07
4.11145e-07
4.12167e-07
4.13188e-07
4.14209e-07
4.15228e-07
4.16246e-07
4.17265e-07
4.18282e-07
4.19298e-07
4.20314e-07
4.21329e-07
4.22342e-07
4.23356e-07
4.24368e-07
4.2538e-07
4.26391e-07
4.274e-07
4.28409e-07
4.29418e-07
4.30425e-07
4.31432e-07
4.32438e-07
4.33443e-07
4.34447e-07
4.36223e-07
9.73509e-07
8.99715e-07
5.74133e-07
2.74472e-07
9.02276e-07
7.1956e-07
4.47174e-07
1.83948e-07
5.06039e-07
5.07528e-07
5.08666e-07
5.09803e-07
5.10939e-07
5.12072e-07
5.13205e-07
5.14336e-07
5.15464e-07
5.16592e-07
5.17718e-07
5.18842e-07
5.19964e-07
5.21086e-07
5.22204e-07
5.23322e-07
5.24439e-07
5.25552e-07
5.26665e-07
5.27777e-07
5.28885e-07
5.29994e-07
5.311e-07
5.32204e-07
5.33307e-07
5.34409e-07
5.35508e-07
5.36606e-07
5.37702e-07
5.38796e-07
5.39889e-07
5.40981e-07
5.4207e-07
5.43158e-07
5.44245e-07
5.45328e-07
5.46412e-07
5.47493e-07
5.48572e-07
5.4965e-07
5.50727e-07
5.53041e-07
9.64013e-07
9.63541e-07
9.14406e-07
9.27155e-07
8.95807e-07
7.00179e-07
7.70191e-07
1.83951e-07
5.06044e-07
5.07531e-07
5.08668e-07
5.09805e-07
5.1094e-07
5.12073e-07
5.13205e-07
5.14336e-07
5.15464e-07
5.16592e-07
5.17718e-07
5.18842e-07
5.19965e-07
5.21086e-07
5.22204e-07
5.23322e-07
5.24439e-07
5.25552e-07
5.26665e-07
5.27777e-07
5.28885e-07
5.29994e-07
5.311e-07
5.32204e-07
5.33307e-07
5.34409e-07
5.35508e-07
5.36606e-07
5.37702e-07
5.38796e-07
5.39889e-07
5.40981e-07
5.4207e-07
5.43158e-07
5.44245e-07
5.45328e-07
5.46412e-07
5.47493e-07
5.48572e-07
5.4965e-07
5.50727e-07
5.53041e-07
9.67508e-07
9.68095e-07
9.27702e-07
9.09259e-07
6.96938e-07
7.51667e-07
7.76467e-07
5.20237e-08
5.05822e-07
5.07531e-07
5.08668e-07
5.09805e-07
5.1094e-07
5.12073e-07
5.13206e-07
5.14336e-07
5.15465e-07
5.16592e-07
5.17718e-07
5.18842e-07
5.19964e-07
5.21086e-07
5.22204e-07
5.23322e-07
5.24439e-07
5.25552e-07
5.26665e-07
5.27777e-07
5.28885e-07
5.29994e-07
5.311e-07
5.32204e-07
5.33307e-07
5.34409e-07
5.35508e-07
5.36606e-07
5.37702e-07
5.38796e-07
5.39889e-07
5.40981e-07
5.4207e-07
5.43158e-07
5.44245e-07
5.45328e-07
5.46412e-07
5.47493e-07
5.48572e-07
5.4965e-07
5.50727e-07
5.53041e-07
8.48789e-07
8.8635e-07
8.31229e-07
7.87237e-07
4.14105e-07
5.82176e-07
9.32542e-07
9.47923e-08
1.8486e-07
5.07182e-07
5.08667e-07
5.09805e-07
5.1094e-07
5.12073e-07
5.13205e-07
5.14336e-07
5.15464e-07
5.16592e-07
5.17718e-07
5.18842e-07
5.19964e-07
5.21086e-07
5.22204e-07
5.23322e-07
5.24439e-07
5.25552e-07
5.26665e-07
5.27777e-07
5.28885e-07
5.29994e-07
5.311e-07
5.32204e-07
5.33307e-07
5.34409e-07
5.35508e-07
5.36606e-07
5.37702e-07
5.38796e-07
5.39889e-07
5.40981e-07
5.4207e-07
5.43158e-07
5.44245e-07
5.45328e-07
5.46412e-07
5.47493e-07
5.48572e-07
5.4965e-07
5.50727e-07
5.53041e-07
8.83079e-07
7.94011e-07
6.59185e-07
5.34846e-07
4.18633e-07
6.4703e-07
9.31419e-07
7.1924e-07
1.84555e-07
5.07177e-07
5.08665e-07
5.09803e-07
5.10939e-07
5.12072e-07
5.13205e-07
5.14336e-07
5.15464e-07
5.16592e-07
5.17718e-07
5.18842e-07
5.19964e-07
5.21086e-07
5.22204e-07
5.23322e-07
5.24439e-07
5.25552e-07
5.26665e-07
5.27777e-07
5.28885e-07
5.29994e-07
5.311e-07
5.32204e-07
5.33307e-07
5.34409e-07
5.35508e-07
5.36606e-07
5.37702e-07
5.38796e-07
5.39889e-07
5.40981e-07
5.4207e-07
5.43158e-07
5.44245e-07
5.45329e-07
5.46412e-07
5.47493e-07
5.48572e-07
5.4965e-07
5.50727e-07
5.53041e-07
8.01058e-07
5.40992e-07
6.94243e-07
6.61315e-07
6.62936e-07
6.14561e-07
9.31251e-07
7.6981e-07
1.84554e-07
5.07174e-07
5.08663e-07
5.09802e-07
5.10938e-07
5.12072e-07
5.13205e-07
5.14336e-07
5.15464e-07
5.16592e-07
5.17718e-07
5.18842e-07
5.19965e-07
5.21086e-07
5.22204e-07
5.23322e-07
5.24439e-07
5.25552e-07
5.26665e-07
5.27777e-07
5.28885e-07
5.29994e-07
5.311e-07
5.32204e-07
5.33307e-07
5.34409e-07
5.35508e-07
5.36606e-07
5.37702e-07
5.38796e-07
5.39889e-07
5.40981e-07
5.4207e-07
5.43158e-07
5.44245e-07
5.45329e-07
5.46412e-07
5.47493e-07
5.48572e-07
5.4965e-07
5.50727e-07
5.53041e-07
8.75395e-07
6.11678e-07
2.48556e-07
9.24706e-07
6.82709e-07
7.08877e-07
9.30265e-07
4.34366e-07
1.84554e-07
5.07173e-07
5.08663e-07
5.09802e-07
5.10938e-07
5.12072e-07
5.13205e-07
5.14336e-07
5.15464e-07
5.16592e-07
5.17718e-07
5.18842e-07
5.19964e-07
5.21086e-07
5.22204e-07
5.23322e-07
5.24439e-07
5.25552e-07
5.26665e-07
5.27777e-07
5.28885e-07
5.29994e-07
5.311e-07
5.32204e-07
5.33307e-07
5.34409e-07
5.35508e-07
5.36606e-07
5.37702e-07
5.38796e-07
5.39889e-07
5.40981e-07
5.4207e-07
5.43158e-07
5.44245e-07
5.45329e-07
5.46412e-07
5.47493e-07
5.48572e-07
5.4965e-07
5.50727e-07
5.53041e-07
9.20199e-07
6.06273e-07
3.90872e-07
3.79386e-07
6.16386e-07
7.33161e-07
9.31564e-07
6.71749e-08
5.05806e-07
5.0752e-07
5.08662e-07
5.09801e-07
5.10938e-07
5.12072e-07
5.13205e-07
5.14336e-07
5.15464e-07
5.16592e-07
5.17718e-07
5.18842e-07
5.19964e-07
5.21086e-07
5.22204e-07
5.23322e-07
5.24439e-07
5.25552e-07
5.26665e-07
5.27777e-07
5.28885e-07
5.29994e-07
5.311e-07
5.32204e-07
5.33307e-07
5.34409e-07
5.35508e-07
5.36606e-07
5.37702e-07
5.38796e-07
5.39889e-07
5.40981e-07
5.4207e-07
5.43158e-07
5.44245e-07
5.45329e-07
5.46412e-07
5.47493e-07
5.48572e-07
5.4965e-07
5.50727e-07
5.53041e-07
7.9748e-07
8.00909e-07
5.47774e-07
5.80988e-07
2.7103e-07
6.96062e-07
7.74524e-07
1.83844e-07
5.06028e-07
5.07522e-07
5.08662e-07
5.09801e-07
5.10938e-07
5.12072e-07
5.13205e-07
5.14336e-07
5.15464e-07
5.16592e-07
5.17718e-07
5.18842e-07
5.19964e-07
5.21086e-07
5.22204e-07
5.23322e-07
5.24439e-07
5.25552e-07
5.26665e-07
5.27777e-07
5.28886e-07
5.29994e-07
5.311e-07
5.32204e-07
5.33307e-07
5.34409e-07
5.35508e-07
5.36606e-07
5.37702e-07
5.38796e-07
5.39889e-07
5.40981e-07
5.4207e-07
5.43158e-07
5.44245e-07
5.45329e-07
5.46412e-07
5.47493e-07
5.48572e-07
5.4965e-07
5.50727e-07
5.53041e-07
9.68682e-07
9.15932e-07
7.2857e-07
3.13058e-07
7.21896e-07
7.15133e-07
7.70009e-07
1.83945e-07
5.06032e-07
5.07524e-07
5.08663e-07
5.09802e-07
5.10938e-07
5.12072e-07
5.13205e-07
5.14336e-07
5.15464e-07
5.16592e-07
5.17718e-07
5.18842e-07
5.19965e-07
5.21086e-07
5.22204e-07
5.23322e-07
5.24439e-07
5.25552e-07
5.26665e-07
5.27777e-07
5.28885e-07
5.29994e-07
5.311e-07
5.32204e-07
5.33307e-07
5.34409e-07
5.35508e-07
5.36606e-07
5.37702e-07
5.38796e-07
5.39889e-07
5.40981e-07
5.4207e-07
5.43158e-07
5.44245e-07
5.45329e-07
5.46412e-07
5.47493e-07
5.48572e-07
5.4965e-07
5.50727e-07
5.53041e-07
9.65319e-07
9.46842e-07
7.11181e-07
1.50335e-07
7.57219e-07
7.21782e-07
4.44508e-07
1.83967e-07
3.93454e-07
3.94697e-07
3.95731e-07
3.96763e-07
3.97795e-07
3.98826e-07
3.99857e-07
4.00886e-07
4.01916e-07
4.02944e-07
4.03972e-07
4.04999e-07
4.06025e-07
4.0705e-07
4.08076e-07
4.09099e-07
4.10122e-07
4.11145e-07
4.12167e-07
4.13188e-07
4.14208e-07
4.15228e-07
4.16246e-07
4.17265e-07
4.18282e-07
4.19298e-07
4.20314e-07
4.21329e-07
4.22342e-07
4.23356e-07
4.24368e-07
4.2538e-07
4.26391e-07
4.274e-07
4.28409e-07
4.29418e-07
4.30425e-07
4.31432e-07
4.32438e-07
4.33443e-07
4.34447e-07
4.36223e-07
9.68404e-07
9.52726e-07
9.09512e-07
8.92429e-07
6.21084e-07
6.9073e-07
7.70071e-07
1.83955e-07
3.93455e-07
3.94698e-07
3.95731e-07
3.96764e-07
3.97795e-07
3.98827e-07
3.99857e-07
4.00887e-07
4.01916e-07
4.02944e-07
4.03972e-07
4.04999e-07
4.06025e-07
4.0705e-07
4.08076e-07
4.09099e-07
4.10122e-07
4.11145e-07
4.12167e-07
4.13188e-07
4.14208e-07
4.15228e-07
4.16246e-07
4.17265e-07
4.18282e-07
4.19298e-07
4.20314e-07
4.21328e-07
4.22342e-07
4.23356e-07
4.24368e-07
4.2538e-07
4.26391e-07
4.274e-07
4.28409e-07
4.29418e-07
4.30425e-07
4.31432e-07
4.32438e-07
4.33443e-07
4.34447e-07
4.36223e-07
9.64067e-07
9.67186e-07
8.30658e-07
6.87799e-07
4.11104e-07
7.13601e-07
7.76373e-07
5.20239e-08
3.93321e-07
3.94698e-07
3.95732e-07
3.96764e-07
3.97795e-07
3.98827e-07
3.99857e-07
4.00887e-07
4.01916e-07
4.02944e-07
4.03972e-07
4.04999e-07
4.06025e-07
4.0705e-07
4.08076e-07
4.09099e-07
4.10122e-07
4.11145e-07
4.12167e-07
4.13188e-07
4.14208e-07
4.15228e-07
4.16246e-07
4.17265e-07
4.18282e-07
4.19298e-07
4.20314e-07
4.21329e-07
4.22342e-07
4.23356e-07
4.24368e-07
4.2538e-07
4.26391e-07
4.274e-07
4.28409e-07
4.29418e-07
4.30425e-07
4.31432e-07
4.32438e-07
4.33443e-07
4.34447e-07
4.36223e-07
7.83582e-07
9.2352e-07
8.14769e-07
6.09096e-07
2.841e-07
5.59431e-07
9.32646e-07
9.47156e-08
1.84865e-07
3.94488e-07
3.95732e-07
3.96764e-07
3.97795e-07
3.98827e-07
3.99857e-07
4.00887e-07
4.01916e-07
4.02944e-07
4.03972e-07
4.04999e-07
4.06025e-07
4.0705e-07
4.08076e-07
4.09099e-07
4.10122e-07
4.11145e-07
4.12167e-07
4.13188e-07
4.14208e-07
4.15228e-07
4.16246e-07
4.17265e-07
4.18282e-07
4.19298e-07
4.20314e-07
4.21329e-07
4.22342e-07
4.23356e-07
4.24368e-07
4.2538e-07
4.26391e-07
4.274e-07
4.28409e-07
4.29418e-07
4.30425e-07
4.31432e-07
4.32438e-07
4.33443e-07
4.34447e-07
4.36223e-07
9.18336e-07
5.66307e-07
2.35878e-07
2.23959e-07
3.59137e-07
7.08753e-07
9.31802e-07
7.30193e-07
1.8456e-07
3.94486e-07
3.95731e-07
3.96763e-07
3.97795e-07
3.98826e-07
3.99857e-07
4.00886e-07
4.01916e-07
4.02944e-07
4.03972e-07
4.04999e-07
4.06025e-07
4.0705e-07
4.08076e-07
4.09099e-07
4.10122e-07
4.11145e-07
4.12167e-07
4.13188e-07
4.14208e-07
4.15228e-07
4.16246e-07
4.17265e-07
4.18282e-07
4.19298e-07
4.20314e-07
4.21329e-07
4.22342e-07
4.23356e-07
4.24368e-07
4.2538e-07
4.26391e-07
4.274e-07
4.28409e-07
4.29418e-07
4.30425e-07
4.31432e-07
4.32438e-07
4.33443e-07
4.34447e-07
4.36223e-07
9.24532e-07
8.68254e-07
7.99735e-07
7.95402e-07
5.213e-07
6.76951e-07
9.31219e-07
7.69655e-07
1.84559e-07
3.94485e-07
3.9573e-07
3.96763e-07
3.97795e-07
3.98826e-07
3.99857e-07
4.00886e-07
4.01916e-07
4.02944e-07
4.03972e-07
4.04999e-07
4.06025e-07
4.0705e-07
4.08076e-07
4.09099e-07
4.10122e-07
4.11145e-07
4.12167e-07
4.13188e-07
4.14208e-07
4.15228e-07
4.16246e-07
4.17265e-07
4.18282e-07
4.19298e-07
4.20314e-07
4.21329e-07
4.22342e-07
4.23356e-07
4.24368e-07
4.2538e-07
4.26391e-07
4.274e-07
4.28409e-07
4.29418e-07
4.30425e-07
4.31432e-07
4.32438e-07
4.33443e-07
4.34447e-07
4.36223e-07
9.27488e-07
8.97293e-07
2.67342e-07
8.58969e-07
5.62604e-07
7.03473e-07
9.30675e-07
4.35635e-07
1.84559e-07
3.94485e-07
3.9573e-07
3.96762e-07
3.97794e-07
3.98826e-07
3.99857e-07
4.00886e-07
4.01916e-07
4.02944e-07
4.03972e-07
4.04999e-07
4.06025e-07
4.0705e-07
4.08076e-07
4.09099e-07
4.10122e-07
4.11145e-07
4.12167e-07
4.13188e-07
4.14208e-07
4.15228e-07
4.16246e-07
4.17265e-07
4.18282e-07
4.19298e-07
4.20314e-07
4.21329e-07
4.22342e-07
4.23356e-07
4.24368e-07
4.2538e-07
4.26391e-07
4.274e-07
4.28409e-07
4.29418e-07
4.30425e-07
4.31432e-07
4.32438e-07
4.33443e-07
4.34447e-07
4.36223e-07
7.76027e-07
8.85919e-07
8.20814e-07
6.45017e-07
7.08293e-07
7.21563e-07
9.32015e-07
6.70738e-08
3.93316e-07
3.94694e-07
3.95729e-07
3.96762e-07
3.97794e-07
3.98826e-07
3.99857e-07
4.00886e-07
4.01916e-07
4.02944e-07
4.03972e-07
4.04999e-07
4.06025e-07
4.0705e-07
4.08076e-07
4.09099e-07
4.10122e-07
4.11145e-07
4.12167e-07
4.13188e-07
4.14208e-07
4.15228e-07
4.16246e-07
4.17265e-07
4.18282e-07
4.19298e-07
4.20314e-07
4.21329e-07
4.22342e-07
4.23356e-07
4.24368e-07
4.2538e-07
4.26391e-07
4.274e-07
4.28409e-07
4.29418e-07
4.30425e-07
4.31432e-07
4.32438e-07
4.33443e-07
4.34447e-07
4.36223e-07
9.30552e-07
8.96316e-07
1.99535e-07
6.30601e-07
5.06206e-07
6.86411e-07
7.74861e-07
1.83848e-07
3.9345e-07
3.94695e-07
3.95729e-07
3.96762e-07
3.97794e-07
3.98826e-07
3.99857e-07
4.00886e-07
4.01916e-07
4.02944e-07
4.03972e-07
4.04999e-07
4.06025e-07
4.0705e-07
4.08076e-07
4.09099e-07
4.10122e-07
4.11145e-07
4.12167e-07
4.13188e-07
4.14208e-07
4.15228e-07
4.16246e-07
4.17265e-07
4.18282e-07
4.19298e-07
4.20314e-07
4.21329e-07
4.22342e-07
4.23356e-07
4.24368e-07
4.2538e-07
4.26391e-07
4.274e-07
4.28409e-07
4.29418e-07
4.30425e-07
4.31432e-07
4.32438e-07
4.33443e-07
4.34447e-07
4.36223e-07
9.61966e-07
8.12871e-07
3.36198e-07
4.21868e-07
2.90772e-07
7.60343e-07
7.70148e-07
1.83951e-07
3.93451e-07
3.94695e-07
3.9573e-07
3.96763e-07
3.97794e-07
3.98826e-07
3.99857e-07
4.00886e-07
4.01916e-07
4.02944e-07
4.03972e-07
4.04999e-07
4.06025e-07
4.0705e-07
4.08076e-07
4.09099e-07
4.10122e-07
4.11145e-07
4.12167e-07
4.13188e-07
4.14208e-07
4.15228e-07
4.16246e-07
4.17265e-07
4.18282e-07
4.19298e-07
4.20314e-07
4.21329e-07
4.22342e-07
4.23356e-07
4.24368e-07
4.2538e-07
4.26391e-07
4.274e-07
4.28409e-07
4.29418e-07
4.30425e-07
4.31432e-07
4.32438e-07
4.33443e-07
4.34447e-07
4.36223e-07
7.00201e-07
6.80733e-07
6.98778e-07
7.26773e-07
7.73657e-07
7.2653e-07
7.72455e-07
6.98904e-07
6.72067e-07
7.00829e-07
7.37048e-07
7.74453e-07
6.8451e-07
7.7569e-07
7.00492e-07
6.79603e-07
7.00171e-07
7.42123e-07
7.74654e-07
6.54979e-07
7.76191e-07
7.00998e-07
6.86617e-07
6.99007e-07
5.50961e-07
7.77826e-07
7.30525e-07
7.69579e-07
6.97683e-07
5.15822e-07
7.00151e-07
6.60482e-07
7.69669e-07
4.18327e-07
7.7514e-07
7.00188e-07
6.14603e-07
6.99452e-07
5.9573e-07
7.76181e-07
4.85355e-07
7.7315e-07
6.98595e-07
6.62656e-07
6.99425e-07
7.49938e-07
7.673e-07
6.26205e-07
7.73994e-07
7.00202e-07
6.52515e-07
7.00511e-07
7.24028e-07
7.75913e-07
5.48959e-07
7.75294e-07
7.00481e-07
6.75375e-07
6.99425e-07
7.11193e-07
7.74254e-07
7.19224e-07
7.73094e-07
7.00269e-07
6.78473e-07
7.00179e-07
7.36247e-07
7.73609e-07
6.46997e-07
7.73254e-07
7.72585e-07
7.0118e-07
7.72864e-07
7.36567e-07
7.73621e-07
6.86366e-07
7.73909e-07
7.74546e-07
6.45808e-07
7.75731e-07
6.67799e-07
7.74657e-07
5.75981e-07
7.75338e-07
7.74294e-07
6.36641e-07
7.76549e-07
7.47158e-07
7.74474e-07
5.71075e-07
7.76296e-07
7.7791e-07
7.29282e-07
7.66769e-07
5.87417e-07
7.76523e-07
7.51729e-07
7.71305e-07
7.70412e-07
5.37462e-07
7.72866e-07
6.93699e-07
7.71662e-07
4.28964e-07
7.74267e-07
7.76242e-07
4.94278e-07
7.73444e-07
6.72727e-07
7.7536e-07
4.47636e-07
7.75937e-07
7.68531e-07
6.31553e-07
7.73377e-07
6.70078e-07
7.71371e-07
6.32893e-07
7.74623e-07
7.75243e-07
4.4903e-07
7.75521e-07
7.11622e-07
7.7603e-07
4.98614e-07
7.76898e-07
7.73578e-07
7.26342e-07
7.70342e-07
6.55194e-07
7.74353e-07
6.95897e-07
7.67808e-07
7.73143e-07
6.50768e-07
7.7282e-07
7.53316e-07
7.72952e-07
6.43664e-07
7.72759e-07
7.74058e-07
6.94247e-07
7.73126e-07
6.82609e-07
7.00172e-07
6.87322e-07
6.98866e-07
7.7481e-07
5.9942e-07
7.75532e-07
6.43971e-07
6.99353e-07
6.4053e-07
7.00612e-07
7.75011e-07
5.63046e-07
7.76049e-07
6.56118e-07
7.00536e-07
5.74873e-07
6.99754e-07
7.75519e-07
7.32805e-07
7.70378e-07
5.00369e-07
6.99064e-07
6.63877e-07
6.99529e-07
7.71652e-07
4.52272e-07
7.74142e-07
6.7438e-07
6.9917e-07
4.54529e-07
6.99687e-07
7.75707e-07
4.37028e-07
7.746e-07
6.42859e-07
7.00297e-07
3.18283e-07
6.99263e-07
7.6783e-07
6.49777e-07
7.73027e-07
6.74441e-07
6.97898e-07
6.87858e-07
6.98651e-07
7.76213e-07
5.2008e-07
7.7656e-07
6.82997e-07
7.00193e-07
3.96923e-07
7.00633e-07
7.74658e-07
6.72952e-07
7.6797e-07
6.7751e-07
7.00687e-07
6.66081e-07
6.9526e-07
7.7322e-07
6.42632e-07
7.73973e-07
6.92719e-07
7.00445e-07
6.50987e-07
7.00241e-07
9.01447e-07
8.81428e-07
8.71998e-07
8.35482e-07
8.76337e-07
8.67556e-07
8.91225e-07
7.5251e-07
6.95961e-07
5.8047e-07
7.41526e-07
6.47415e-07
6.71652e-07
7.66741e-07
3.52761e-08
6.2614e-07
3.52762e-08
4.41408e-07
5.19792e-08
7.68479e-07
5.19799e-08
8.81038e-07
7.61174e-07
7.87248e-07
9.05901e-07
9.0247e-07
8.96403e-07
8.75713e-07
7.39294e-07
6.90951e-07
6.3156e-07
7.66273e-07
7.61179e-07
6.5325e-07
6.85035e-07
3.52772e-08
7.0139e-07
3.56633e-08
7.70437e-07
5.19824e-08
7.76524e-07
5.30143e-08
7.1188e-07
6.57814e-07
4.10803e-07
8.43203e-07
8.41391e-07
5.65949e-07
4.04011e-07
7.68151e-07
6.97276e-07
6.02901e-07
6.83319e-07
7.74712e-07
7.15765e-07
6.95322e-07
4.02205e-08
9.0288e-07
2.37318e-07
7.76559e-07
5.95088e-08
9.31803e-07
3.14644e-07
1.40333e-07
7.7455e-07
8.86462e-07
4.64113e-07
2.20573e-07
7.19778e-07
6.34491e-07
7.47555e-07
6.90676e-07
2.64566e-07
6.81477e-07
7.63854e-07
3.48173e-07
6.90537e-07
6.9268e-07
9.01882e-07
7.01238e-07
9.32933e-07
7.66507e-07
9.31162e-07
7.74607e-07
7.55804e-07
6.41779e-07
5.39964e-07
4.63467e-07
4.1833e-07
3.9613e-07
2.92816e-07
7.47464e-07
6.95443e-07
6.10323e-07
7.12182e-07
7.62802e-07
6.07928e-07
6.86343e-07
9.02978e-07
9.02591e-07
9.03312e-07
9.32163e-07
9.32066e-07
9.31759e-07
9.32456e-07
3.63702e-07
7.66685e-07
1.39334e-07
5.99519e-07
2.94886e-07
4.07252e-07
2.40256e-07
7.59645e-07
7.0008e-07
6.59563e-07
5.45223e-07
7.75761e-07
7.28341e-07
6.94198e-07
9.0309e-07
9.02115e-07
9.02792e-07
9.31308e-07
9.32271e-07
9.3137e-07
9.3202e-07
6.52732e-07
8.35093e-07
6.42167e-07
5.39301e-07
5.11698e-07
8.58726e-07
8.2051e-07
7.55262e-07
6.98501e-07
6.87539e-07
7.66005e-07
7.68791e-07
7.29507e-07
6.91991e-07
7.00355e-07
9.02443e-07
6.93554e-07
9.3006e-07
7.75046e-07
9.31674e-07
7.6721e-07
8.56801e-07
8.79481e-07
8.97078e-07
6.95907e-07
8.61506e-07
7.65284e-07
8.42019e-07
6.49441e-07
6.9571e-07
6.49891e-07
7.13984e-07
7.70101e-07
6.01608e-07
5.64882e-07
3.15055e-07
6.99762e-07
4.46675e-08
9.32058e-07
3.97583e-07
7.74689e-07
6.65974e-08
6.3578e-07
8.01917e-07
6.17561e-07
2.04853e-07
6.5738e-07
3.43576e-07
7.31254e-07
6.4048e-07
6.85034e-07
3.53627e-07
7.13271e-07
7.61147e-07
5.09487e-07
5.69884e-07
3.73403e-08
6.96553e-07
3.52135e-08
7.74477e-07
5.5399e-08
7.73219e-07
5.19872e-08
7.13015e-07
8.60185e-07
8.80548e-07
7.9094e-07
7.88065e-07
9.07697e-07
9.09107e-07
7.6892e-07
6.95582e-07
6.52492e-07
6.99987e-07
7.66279e-07
6.54092e-07
6.99733e-07
3.52772e-08
4.33301e-07
3.52761e-08
7.70227e-07
5.19817e-08
4.9332e-07
5.19789e-08
9.02028e-07
8.97957e-07
8.7775e-07
8.0839e-07
8.99138e-07
6.91712e-07
8.80312e-07
7.31639e-07
7.59145e-07
6.09589e-07
7.32022e-07
7.3647e-07
6.11021e-07
7.62037e-07
5.19787e-08
7.68422e-07
5.19795e-08
4.58666e-07
5.19788e-08
7.68024e-07
5.19795e-08
8.84952e-07
8.62256e-07
8.61887e-07
8.31562e-07
8.55856e-07
7.50008e-07
8.42185e-07
6.7388e-07
7.53455e-07
5.74786e-07
6.99852e-07
6.71723e-07
7.46258e-07
5.8104e-07
5.1982e-08
7.76609e-07
5.30715e-08
7.69915e-07
5.19821e-08
7.76925e-07
5.30719e-08
6.69027e-07
5.40004e-07
3.17428e-07
3.87772e-07
5.04168e-07
3.6774e-07
2.94083e-07
7.5365e-07
7.72174e-07
7.43597e-07
7.28676e-07
7.60189e-07
7.66001e-07
7.50204e-07
5.95694e-08
9.31179e-07
3.14384e-07
7.76204e-07
5.95744e-08
9.30937e-07
3.14149e-07
2.11413e-07
8.03471e-07
3.28182e-07
4.11932e-07
2.73615e-07
4.46675e-07
7.53829e-07
6.6423e-07
7.63871e-07
5.59757e-07
6.30931e-07
6.4931e-07
7.61527e-07
5.32846e-07
7.66504e-07
9.31588e-07
7.74304e-07
9.32779e-07
7.66651e-07
9.31692e-07
7.7546e-07
6.50894e-07
6.31107e-07
3.43047e-07
2.26774e-07
3.65714e-07
4.89421e-07
5.45171e-07
7.29312e-07
7.4074e-07
6.40665e-07
6.36402e-07
7.22696e-07
7.41926e-07
5.99782e-07
9.31756e-07
9.31647e-07
9.32539e-07
9.32276e-07
9.31839e-07
9.3156e-07
9.32484e-07
2.95572e-07
3.99951e-07
2.0706e-07
4.91947e-07
4.45526e-07
6.48262e-07
1.67557e-07
7.3972e-07
7.65623e-07
7.03737e-07
6.33426e-07
7.39828e-07
7.60793e-07
6.73737e-07
9.32202e-07
9.31052e-07
9.31878e-07
9.3108e-07
9.32211e-07
9.31158e-07
9.31843e-07
5.36036e-07
8.93089e-07
7.68284e-07
5.47155e-07
3.81332e-07
8.778e-07
8.83826e-07
7.32174e-07
7.73457e-07
6.22048e-07
6.63449e-07
7.33452e-07
7.70241e-07
6.08724e-07
7.75068e-07
9.31064e-07
7.67205e-07
9.30891e-07
7.7563e-07
9.31101e-07
7.66897e-07
4.86947e-07
3.84275e-07
3.67549e-07
6.23474e-07
7.32213e-07
6.52856e-07
2.59729e-07
6.63838e-07
7.66471e-07
3.92708e-07
7.50204e-07
6.61044e-07
7.6528e-07
3.44139e-07
3.96764e-07
7.74235e-07
6.6673e-08
9.31718e-07
3.96324e-07
7.7431e-07
6.66709e-08
6.83203e-07
3.29381e-07
5.38945e-07
5.94624e-07
5.80879e-07
7.51923e-07
7.57404e-07
6.5992e-07
7.26801e-07
6.22525e-07
6.66842e-07
6.40426e-07
7.32478e-07
6.16295e-07
5.54575e-08
7.72724e-07
5.19867e-08
7.74809e-07
5.54574e-08
7.71282e-07
5.19868e-08
6.45248e-07
8.92922e-07
8.44137e-07
2.22144e-07
5.29476e-07
8.1965e-07
7.71917e-07
7.54676e-07
7.56596e-07
7.44664e-07
6.86371e-07
7.60825e-07
7.65613e-07
7.60883e-07
5.19813e-08
5.17597e-07
5.19784e-08
7.698e-07
5.19813e-08
4.9228e-07
5.19784e-08
8.48323e-07
3.29393e-07
7.76767e-07
6.78086e-07
7.14247e-07
6.48015e-07
6.07119e-07
7.376e-07
7.68528e-07
5.89342e-07
7.58749e-07
7.28749e-07
5.68708e-07
7.72633e-07
5.19792e-08
7.68128e-07
5.19799e-08
3.84555e-07
3.52762e-08
6.09207e-07
3.52763e-08
8.89501e-07
8.8078e-07
8.59786e-07
6.94609e-07
8.58489e-07
8.26636e-07
8.47509e-07
7.04614e-07
7.6031e-07
5.06208e-07
6.42282e-07
6.88164e-07
7.61245e-07
4.74991e-07
5.19823e-08
7.76702e-07
5.30161e-08
6.89519e-07
3.52561e-08
7.01496e-07
3.56609e-08
3.60522e-07
1.69529e-07
6.46028e-07
6.18273e-07
7.11908e-07
6.78564e-07
3.41322e-07
7.60877e-07
7.73474e-07
6.83212e-07
6.82356e-07
7.5752e-07
7.68333e-07
6.72674e-07
5.95151e-08
9.31197e-07
3.14469e-07
7.00498e-07
4.00989e-08
9.02525e-07
2.37096e-07
6.57518e-07
3.5609e-07
8.3016e-07
6.02565e-07
2.66733e-07
7.88079e-07
8.44042e-07
7.18062e-07
7.65885e-07
4.16182e-07
4.99884e-07
6.76299e-07
7.67662e-07
4.80232e-07
7.66721e-07
9.31722e-07
7.75418e-07
9.03503e-07
6.92609e-07
9.02437e-07
7.01271e-07
3.69501e-07
5.9063e-07
6.29973e-07
6.69674e-07
6.26194e-07
6.85064e-07
6.82671e-07
7.65464e-07
7.5351e-07
6.63448e-07
7.64688e-07
7.67591e-07
7.4978e-07
6.61531e-07
9.31894e-07
9.31557e-07
9.32411e-07
9.02895e-07
9.02986e-07
9.02573e-07
9.03311e-07
5.9801e-07
7.74095e-07
1.80311e-07
6.09583e-07
6.65304e-07
5.14009e-07
1.92821e-07
7.57769e-07
7.5963e-07
6.52213e-07
7.04511e-07
7.48935e-07
7.58667e-07
6.37939e-07
9.32377e-07
9.31434e-07
9.32044e-07
9.02305e-07
9.03145e-07
9.02182e-07
9.02704e-07
3.13477e-07
7.41933e-07
8.23237e-07
6.93426e-07
3.39085e-07
8.62051e-07
8.75512e-07
7.29402e-07
7.70087e-07
7.27604e-07
7.16634e-07
7.25976e-07
7.71053e-07
7.00301e-07
7.75774e-07
9.31876e-07
7.66969e-07
9.01885e-07
7.00412e-07
9.02518e-07
6.93537e-07
7.34552e-07
4.37566e-07
3.09149e-07
6.59892e-07
6.79194e-07
6.38785e-07
4.09757e-07
7.14585e-07
7.71951e-07
5.40912e-07
7.26199e-07
6.78007e-07
7.72276e-07
4.92131e-07
3.9798e-07
7.7467e-07
6.65954e-08
9.02956e-07
3.14102e-07
6.98769e-07
4.46763e-08
5.00811e-07
5.76179e-07
5.29426e-07
5.10348e-07
6.52044e-07
6.87675e-07
6.90204e-07
7.38917e-07
7.59554e-07
6.40133e-07
7.3645e-07
7.02301e-07
7.68861e-07
6.65256e-07
5.53996e-08
7.71782e-07
5.19872e-08
7.0125e-07
3.72639e-08
6.92884e-07
3.52145e-08
5.36626e-07
8.70071e-07
7.70053e-07
5.17372e-07
6.59337e-07
8.00476e-07
7.0861e-07
7.61948e-07
7.68316e-07
7.21624e-07
7.46236e-07
7.57875e-07
7.7087e-07
6.86536e-07
5.19816e-08
4.9626e-07
5.19788e-08
6.83378e-07
3.52772e-08
4.35084e-07
3.52761e-08
7.72474e-07
6.99513e-07
7.00265e-07
7.75345e-07
7.75708e-07
6.98652e-07
7.74164e-07
7.62678e-07
4.52335e-07
6.9291e-07
7.6631e-07
5.74185e-07
7.60173e-07
6.89097e-07
7.69783e-07
7.00084e-07
6.94755e-07
7.73014e-07
7.75293e-07
7.68083e-07
6.96e-07
7.47193e-07
7.45324e-07
7.623e-07
6.28312e-07
6.26014e-07
7.42283e-07
7.64843e-07
7.69569e-07
7.74214e-07
7.72626e-07
7.7435e-07
7.7489e-07
7.67317e-07
7.73202e-07
7.59609e-07
7.66302e-07
5.86716e-07
7.6139e-07
5.93021e-07
7.5525e-07
7.59061e-07
7.69039e-07
7.72293e-07
7.74032e-07
7.68565e-07
7.74456e-07
7.67546e-07
7.69425e-07
7.75024e-07
6.96838e-07
7.00112e-07
7.74021e-07
7.71837e-07
7.75286e-07
7.00404e-07
7.5911e-07
6.61647e-07
6.9331e-07
6.95902e-07
6.88586e-07
7.67177e-07
6.90772e-07
7.74948e-07
7.00133e-07
6.99531e-07
7.76644e-07
7.75481e-07
7.75351e-07
6.99327e-07
7.20048e-07
7.7103e-07
7.55353e-07
6.20175e-07
7.56929e-07
6.42315e-07
6.98962e-07
7.711e-07
7.74067e-07
7.71216e-07
7.74433e-07
7.7147e-07
7.74357e-07
7.67438e-07
7.5694e-07
6.52614e-07
5.70927e-07
7.693e-07
6.16727e-07
7.675e-07
7.50208e-07
7.72791e-07
7.75763e-07
7.73815e-07
7.7532e-07
7.74182e-07
7.74834e-07
7.75892e-07
7.71468e-07
7.00017e-07
7.00477e-07
7.76362e-07
7.74345e-07
7.76399e-07
6.98689e-07
7.01893e-07
4.75891e-07
6.91216e-07
7.35924e-07
6.39726e-07
7.6415e-07