/*--------------------------------*- C++ -*----------------------------------*\
| =========                 |                                                 |
| \\      /  F ield         | OpenFOAM: The Open Source CFD Toolbox           |
|  \\    /   O peration     | Version:  5.0                                   |
|   \\  /    A nd           | Web:      www.OpenFOAM.org                      |
|    \\/     M anipulation  |                                                 |
\*---------------------------------------------------------------------------*/
FoamFile
{
    version     2.0;
    format      ascii;
    class       volVectorField;
    location    "5";
    object      U;
}
// * * * * * * * * * * * * * * * * * * * * * * * * * * * * * * * * * * * * * //

dimensions      [0 1 -1 0 0 0 0];

internalField   nonuniform List<vector> 
9655
(
(0.00104465 0.00119017 2.06466e-05)
(-0.00297905 0.00574154 -0.000358286)
(0.00582514 -0.000715099 0.000508236)
(-0.00325859 -0.0347128 0.000290469)
(-0.00323501 0.0069424 -0.000202942)
(-0.00152832 0.00228163 -3.40809e-05)
(0.00108682 0.000387993 2.70068e-05)
(0.000417286 4.99439e-05 3.52252e-08)
(0.000813424 2.95605e-05 -1.38866e-06)
(0.00078405 1.96778e-05 -3.04892e-07)
(0.000804299 1.22701e-05 1.92674e-07)
(0.000807473 7.71461e-06 4.89718e-08)
(0.000810961 4.86226e-06 4.24151e-09)
(0.000811527 3.53243e-06 7.15618e-08)
(0.000810795 2.18447e-06 4.97437e-08)
(0.000810247 1.28435e-06 6.01899e-08)
(0.00080932 7.02905e-07 5.30067e-08)
(0.000807972 4.37531e-07 4.95955e-08)
(0.000806418 2.38534e-07 6.05232e-08)
(0.000805245 -1.73403e-07 1.11059e-07)
(0.00080402 -4.14071e-08 4.60471e-08)
(0.000802248 1.36614e-07 3.23245e-08)
(0.000800664 1.23659e-07 2.03863e-08)
(0.000799169 9.48024e-08 5.13559e-08)
(0.000797611 3.02256e-07 -2.01748e-08)
(0.000796001 4.93662e-07 4.0367e-08)
(0.000794492 4.01345e-07 6.19626e-08)
(0.000793141 1.93938e-07 5.03911e-08)
(0.000791478 2.96422e-07 6.58977e-08)
(0.000789934 -1.23887e-07 3.56475e-08)
(0.000788354 -4.0998e-07 7.914e-08)
(0.00078656 -4.76975e-07 6.83459e-08)
(0.000785148 -4.30109e-07 8.62576e-08)
(0.00078399 -1.91656e-07 5.88236e-09)
(0.000782585 -3.84074e-08 4.49347e-08)
(0.000780939 -1.80576e-08 4.99295e-08)
(0.000779301 5.52024e-08 3.37982e-08)
(0.000777571 1.88927e-07 1.09677e-08)
(0.000776666 5.19566e-07 7.51302e-08)
(0.000775591 1.48555e-07 9.95647e-08)
(0.000773792 2.29892e-08 2.77504e-08)
(0.000772273 -3.44299e-08 6.82381e-08)
(0.000771305 -2.99852e-07 1.47089e-07)
(0.0007696 -3.38227e-07 7.67194e-09)
(0.000767724 -1.37988e-07 4.73582e-08)
(0.000766469 -5.91432e-09 2.78744e-08)
(0.000765247 5.25962e-08 4.68076e-08)
(0.000764069 -1.0431e-07 4.18433e-08)
(0.000762368 -3.24082e-07 4.15637e-08)
(0.000760774 -3.20501e-07 7.01626e-10)
(0.00279344 -0.00322891 -0.000157154)
(0.00387177 0.00546851 -4.88473e-06)
(0.00416405 0.00103745 8.5184e-05)
(0.00154205 -0.012224 -0.000152473)
(-0.00403718 -0.00560125 -5.28816e-05)
(0.00287683 -0.000844756 0.0001193)
(0.000703081 2.3584e-05 9.84895e-05)
(0.000398586 9.2727e-06 -1.15644e-06)
(0.000822353 -1.15771e-05 -1.26062e-06)
(0.000781907 -1.90453e-06 -2.99763e-07)
(0.000801607 -1.28653e-06 1.36242e-07)
(0.000805742 -4.25498e-08 5.29133e-08)
(0.000809127 1.07542e-07 6.27404e-08)
(0.000810311 -1.06253e-07 5.11346e-08)
(0.000810454 5.24326e-09 5.02272e-08)
(0.000809855 8.10028e-08 4.33252e-08)
(0.000808917 6.55525e-08 -3.36735e-09)
(0.000807985 2.62982e-08 8.08081e-08)
(0.000806537 2.58269e-07 5.67617e-08)
(0.000804973 3.0975e-07 2.87307e-08)
(0.00080372 2.79641e-07 8.9785e-08)
(0.000802331 7.88333e-08 6.19176e-08)
(0.000800626 2.13617e-07 1.02503e-07)
(0.000799237 2.17859e-07 5.41373e-08)
(0.000797894 1.96936e-07 -4.8649e-08)
(0.000796015 5.67864e-09 3.36649e-08)
(0.000794298 -1.26387e-08 6.52763e-08)
(0.000793004 -1.33702e-07 4.67601e-08)
(0.000791215 -4.47238e-07 7.8546e-08)
(0.000789365 -3.07431e-07 3.93249e-08)
(0.000788146 -2.77482e-07 -1.43881e-07)
(0.000786773 -1.35986e-07 1.94225e-08)
(0.000785561 3.91113e-07 1.17148e-07)
(0.000784318 4.21574e-07 1.6392e-07)
(0.000782584 1.56431e-07 4.9253e-08)
(0.000781042 1.58406e-07 3.15859e-08)
(0.00077975 1.82189e-07 4.50495e-08)
(0.000778484 3.75928e-07 7.41727e-09)
(0.000776516 6.33193e-07 2.23045e-08)
(0.00077471 3.11063e-07 3.04777e-08)
(0.000773489 5.06057e-08 6.8399e-08)
(0.000772046 -6.62915e-08 7.39985e-08)
(0.000770521 -1.93652e-07 3.71403e-08)
(0.000769536 -5.14291e-07 4.90817e-08)
(0.000768418 -1.12567e-07 5.31472e-08)
(0.000766785 -1.74892e-08 6.83334e-08)
(0.00076521 1.72137e-07 4.57414e-08)
(0.000763701 -3.87157e-09 4.94631e-08)
(0.000762298 -1.64212e-07 -6.94326e-08)
(0.000761221 -1.92721e-07 1.08417e-07)
(-0.00246469 0.0047325 0.000262585)
(-0.00401091 0.00706186 4.99003e-05)
(-0.00498074 0.00605427 0.00076143)
(-0.00927344 -0.01552 -0.000667263)
(0.0109637 0.0167629 0.000474829)
(-0.00512831 0.00220495 -0.000113825)
(0.000835902 -0.000550577 2.38247e-05)
(0.000289891 -2.92508e-05 3.23626e-06)
(0.000843508 -6.09423e-05 -2.17654e-06)
(0.000797216 -3.56803e-06 -4.4435e-07)
(0.000806666 -1.12895e-05 1.60132e-07)
(0.000809238 -5.74055e-06 1.11218e-07)
(0.000810893 -4.09701e-06 1.68032e-07)
(0.000811406 -2.65633e-06 5.45008e-08)
(0.000811034 -1.68474e-06 5.42848e-08)
(0.000810325 -1.13282e-06 5.52697e-08)
(0.000809254 -6.63155e-07 5.16282e-08)
(0.000808214 -4.41776e-07 1.00184e-07)
(0.000806773 -5.98024e-07 -1.02682e-07)
(0.000805271 -2.55123e-07 3.69872e-08)
(0.00080373 -1.56305e-07 4.96927e-08)
(0.000802164 -6.98355e-08 4.70057e-08)
(0.000800836 -9.03129e-08 1.1211e-07)
(0.000799145 -1.75609e-08 8.63672e-08)
(0.000797344 -2.53666e-07 3.20864e-08)
(0.000795737 -2.35603e-07 4.1619e-08)
(0.000794317 -1.40236e-07 2.77179e-08)
(0.0007926 -7.19778e-08 5.6962e-08)
(0.000791264 -1.77708e-07 -1.41658e-07)
(0.00079015 3.9907e-07 2.25116e-08)
(0.000788571 5.11832e-07 1.7049e-07)
(0.000787396 5.83697e-07 4.92768e-08)
(0.000785843 5.0121e-07 4.26545e-09)
(0.000783693 2.95126e-07 -2.17647e-10)
(0.000782253 1.23229e-07 1.12349e-07)
(0.000780969 1.60092e-07 5.43947e-08)
(0.00077957 7.16291e-08 1.66113e-07)
(0.000778131 -1.99959e-08 5.17018e-08)
(0.00077658 -1.87939e-07 2.78511e-08)
(0.00077486 3.82225e-08 6.35458e-08)
(0.000773319 3.02001e-08 4.98997e-08)
(0.000771969 9.20484e-08 -1.45787e-08)
(0.000770748 3.6708e-07 7.6055e-08)
(0.000769705 4.08758e-07 9.80869e-08)
(0.000768349 2.04387e-07 8.27844e-08)
(0.000766826 1.41993e-07 5.27668e-08)
(0.000765265 1.56084e-07 4.91202e-08)
(0.00076365 3.35295e-07 5.70537e-08)
(0.000762138 1.42744e-07 5.74487e-08)
(0.000761217 1.14745e-07 1.21727e-07)
(0.00101955 0.00318161 0.000172951)
(-0.00120669 -0.00423255 0.00079521)
(-0.00422865 -0.00966406 -0.0001491)
(0.0111139 0.00709369 -0.00107228)
(-0.024236 0.00205212 -0.00174071)
(-0.0233298 0.0100237 -0.000835294)
(0.000789707 -0.000470408 -1.23468e-05)
(0.000466392 -0.000173082 3.10226e-05)
(0.00042966 -2.39019e-05 -1.16124e-06)
(0.000857505 -1.63257e-05 -9.23029e-07)
(0.000799123 -1.96839e-05 -4.02224e-07)
(0.000814835 -1.05415e-05 1.74559e-07)
(0.000813043 -7.29569e-06 4.76394e-08)
(0.000813366 -4.47362e-06 6.52337e-08)
(0.000812384 -2.63107e-06 5.21233e-08)
(0.000811148 -1.5778e-06 5.15451e-08)
(0.000809792 -1.10896e-06 4.88292e-08)
(0.000808075 -6.55065e-07 -8.88183e-09)
(0.000806776 -6.7097e-07 4.21034e-08)
(0.00080553 -7.34096e-07 3.50343e-08)
(0.000803954 -5.33354e-07 5.53191e-08)
(0.000802415 -2.85813e-07 5.07892e-08)
(0.000800692 -3.59609e-07 -1.57913e-08)
(0.000799034 -2.81823e-07 5.56674e-08)
(0.000797622 -2.11287e-07 1.99091e-08)
(0.000796159 6.23195e-08 3.09288e-08)
(0.000794503 2.28047e-07 6.29912e-08)
(0.000792957 4.22234e-07 6.21006e-08)
(0.000791802 7.79651e-07 -1.14452e-08)
(0.000790224 5.53121e-07 4.71773e-08)
(0.000788371 3.84496e-07 8.64509e-08)
(0.000786754 4.88192e-07 7.13235e-08)
(0.000785196 2.59525e-08 4.48561e-08)
(0.000783844 -3.01341e-08 5.17388e-08)
(0.000782414 1.06542e-07 2.26854e-08)
(0.000780976 5.85905e-08 5.82282e-08)
(0.000779524 -1.70462e-09 1.53692e-07)
(0.00077816 -1.07082e-07 4.31605e-08)
(0.000776589 -2.71439e-07 2.1796e-08)
(0.000774983 -3.39291e-07 -6.28617e-09)
(0.000773556 -1.77176e-08 4.14729e-08)
(0.000772465 1.86692e-07 5.30837e-08)
(0.000770913 2.75192e-07 1.20436e-07)
(0.000769328 2.63476e-07 -3.80007e-08)
(0.000768081 3.37034e-08 3.53107e-08)
(0.000766722 4.30696e-09 4.35307e-08)
(0.000765449 8.34746e-08 8.08333e-08)
(0.000763681 2.84999e-07 -9.83656e-08)
(0.000762018 1.97234e-07 4.8436e-08)
(0.000760899 2.62791e-07 1.60761e-07)
(0.0286665 -0.00469591 -0.00187745)
(-0.0174574 -0.0289528 0.000119469)
(0.00259723 -0.00446183 -0.000641627)
(0.020352 0.0154691 0.00049735)
(-0.0494454 0.00636765 -0.00156421)
(0.0044008 0.000485959 0.000419818)
(-0.000131934 -7.33396e-05 2.88956e-06)
(0.00180801 0.000504312 0.000119726)
(0.000492603 -3.30457e-05 -1.24883e-06)
(0.000901924 -3.11163e-05 -1.51324e-06)
(0.000814174 -2.04319e-05 -6.11822e-07)
(0.000824881 -1.2421e-05 1.71239e-07)
(0.000818571 -7.46676e-06 9.19039e-08)
(0.000817297 -4.85407e-06 6.33683e-08)
(0.000814689 -3.35076e-06 2.45641e-08)
(0.00081225 -2.20777e-06 1.5636e-08)
(0.000810421 -1.34729e-06 5.07434e-08)
(0.000808771 -9.12815e-07 4.62842e-08)
(0.000806681 -2.49783e-07 6.82866e-08)
(0.000805449 7.36412e-08 9.74622e-08)
(0.000804295 -9.41821e-08 6.7398e-08)
(0.000802385 -9.92684e-08 1.03005e-07)
(0.000800844 -4.19508e-08 2.63354e-07)
(0.000799334 6.33381e-08 9.95808e-08)
(0.000797776 1.47194e-07 7.49255e-08)
(0.000796286 1.06679e-08 6.84037e-08)
(0.000794765 2.03616e-07 6.89219e-08)
(0.000793284 3.14886e-07 6.31811e-08)
(0.000791421 4.85606e-07 2.91636e-08)
(0.000789648 2.98114e-07 1.22792e-08)
(0.000788484 1.79986e-07 8.76818e-08)
(0.000786943 -1.50963e-07 5.59899e-08)
(0.000785192 1.07151e-07 3.31111e-08)
(0.000783792 9.18366e-08 4.97699e-08)
(0.000782363 1.49578e-07 6.7338e-08)
(0.000780833 2.63274e-08 4.7891e-08)
(0.000779363 -2.52283e-09 5.1558e-08)
(0.000777795 -1.13648e-07 6.89231e-08)
(0.000776292 -1.50756e-07 4.62607e-08)
(0.000775179 -2.22502e-07 8.75263e-08)
(0.000773977 -2.44027e-08 8.71278e-08)
(0.000772333 1.08348e-07 8.55542e-08)
(0.000770841 -7.76223e-08 2.39146e-08)
(0.0007694 7.6564e-08 -7.22443e-08)
(0.000768023 -1.09292e-07 4.04726e-08)
(0.000766888 -2.28005e-07 4.96702e-08)
(0.000765615 -5.07664e-07 1.52452e-08)
(0.000763791 -8.22321e-07 4.61424e-08)
(0.000762103 -3.06911e-07 7.8979e-08)
(0.000760645 4.35898e-08 5.05132e-08)
(0.00772866 -0.00482545 -0.000948114)
(0.018187 0.00618691 -0.000891003)
(0.0211082 -0.00167203 9.652e-06)
(0.0112528 -0.0086228 -0.000459723)
(-0.0120579 0.00936094 -0.00067901)
(0.0128663 0.00242825 0.000711666)
(0.00100975 -0.000748547 -1.79089e-05)
(0.00155208 -0.000208732 0.000125188)
(0.00048174 -2.54694e-05 3.73814e-07)
(0.00091313 -1.32209e-05 -1.3966e-06)
(0.000823089 -8.10839e-06 -5.6783e-07)
(0.000831192 -6.26943e-06 1.60123e-07)
(0.000822595 -3.85274e-06 4.62544e-09)
(0.000818568 -2.7324e-06 4.95443e-08)
(0.000815729 -2.05672e-06 7.52301e-08)
(0.000813677 -1.49822e-06 7.8866e-08)
(0.000811426 -9.09254e-07 5.32529e-08)
(0.000809456 -5.76611e-07 6.42909e-08)
(0.000808014 -3.89334e-07 4.16452e-08)
(0.000805726 2.14462e-07 2.36947e-08)
(0.000803739 1.34941e-07 8.18574e-08)
(0.000802481 1.04784e-07 1.42569e-07)
(0.000800896 1.74289e-07 1.4773e-07)
(0.000799271 9.29642e-08 -9.9005e-10)
(0.000797556 1.41293e-07 6.80013e-08)
(0.000796228 1.25083e-07 8.29643e-08)
(0.000794882 -4.3857e-08 4.21045e-08)
(0.000793307 -1.3519e-07 1.10671e-08)
(0.000791778 1.05374e-07 2.82767e-08)
(0.000789839 -1.6418e-07 -7.29617e-08)
(0.000787809 -2.54468e-07 9.78271e-09)
(0.000786662 -3.01143e-07 -1.85577e-08)
(0.000785499 -2.59392e-07 1.41573e-08)
(0.000783895 -1.32646e-07 -5.15617e-08)
(0.000782331 -1.52137e-07 2.68577e-08)
(0.000780786 -3.86196e-08 4.46607e-08)
(0.00077935 2.2448e-08 6.06651e-08)
(0.000777976 4.51961e-08 1.01077e-07)
(0.000776454 1.96584e-07 7.27101e-08)
(0.000775142 2.43687e-07 6.89877e-08)
(0.00077397 1.70712e-07 3.48441e-08)
(0.000772399 5.38013e-08 1.46284e-08)
(0.000770874 1.06019e-07 2.61695e-08)
(0.00076929 9.42473e-09 6.26817e-08)
(0.000767702 -2.53841e-08 4.32809e-08)
(0.000766227 -1.60251e-07 4.66643e-08)
(0.00076471 -5.02213e-07 -7.4404e-08)
(0.000763937 -6.90141e-07 -2.33391e-08)
(0.000763102 -4.81172e-07 8.93263e-08)
(0.000761229 -3.35561e-07 1.30756e-07)
(0.0046502 0.0112083 -0.00130655)
(-0.0197073 -0.0018295 0.00420268)
(0.00881484 -0.00247383 0.00183884)
(-0.00043533 -0.000169216 -0.000313892)
(0.00426587 0.00544037 0.000961422)
(0.000284629 0.00526261 0.000170602)
(-0.000632761 -0.00104262 1.27618e-05)
(0.00170978 -0.000468192 3.41181e-05)
(0.000497179 2.20999e-06 6.5575e-07)
(0.000890967 -1.47073e-05 -1.19995e-06)
(0.000822735 1.64403e-07 -4.34062e-07)
(0.000830259 -1.22501e-06 1.79221e-07)
(0.000823034 -6.18936e-07 3.74043e-08)
(0.000819569 -2.83146e-07 5.95299e-08)
(0.000816252 1.81616e-08 4.78041e-08)
(0.000813698 6.44604e-08 5.54094e-08)
(0.000811582 -7.29666e-08 5.44154e-08)
(0.000809426 -2.35966e-09 4.55989e-08)
(0.000807672 -3.7884e-08 4.94239e-08)
(0.000806104 -2.97482e-07 5.38248e-08)
(0.000804157 9.0741e-08 4.46501e-08)
(0.000802433 7.39458e-08 4.72811e-08)
(0.000800828 9.32015e-08 -2.19173e-08)
(0.000799291 1.53254e-08 5.94474e-08)
(0.000797815 8.81939e-08 5.17616e-09)
(0.000796055 1.25927e-07 3.10791e-08)
(0.00079444 -1.30046e-07 5.92095e-08)
(0.000793472 -3.04468e-07 4.25555e-08)
(0.000791387 -1.06714e-06 -9.58081e-08)
(0.000789201 -1.01191e-06 1.03109e-07)
(0.000788316 -5.63205e-07 -6.51967e-08)
(0.000786941 -1.24556e-07 1.49411e-07)
(0.000785405 -1.31202e-07 4.21626e-08)
(0.000783929 -1.22696e-07 7.26836e-08)
(0.000782482 -1.20426e-07 6.50276e-08)
(0.000781053 1.47021e-10 5.77464e-08)
(0.000779468 6.69818e-08 4.96453e-08)
(0.000778012 1.77558e-07 4.2375e-08)
(0.000776539 1.15676e-07 3.47675e-08)
(0.000775145 3.56787e-07 1.71828e-08)
(0.000773739 1.28614e-07 3.51027e-08)
(0.000772251 -1.18029e-08 1.04238e-09)
(0.000770785 -6.08819e-08 6.24335e-08)
(0.000769236 -1.50185e-07 -1.08164e-07)
(0.000767812 -4.66009e-08 9.84685e-09)
(0.000766294 2.00116e-08 4.98719e-08)
(0.000764957 1.90839e-08 3.5047e-08)
(0.000763822 1.49041e-07 4.2178e-08)
(0.000762556 -2.54773e-07 4.25022e-08)
(0.000761664 -3.26448e-07 5.4359e-08)
(-0.0017769 -0.000458012 0.000276172)
(0.00712355 -0.0153217 -0.00211494)
(-0.0016932 0.00912538 -0.00388489)
(0.00447775 -0.0118033 0.000343029)
(0.00582238 -0.00124167 0.00214103)
(0.00466509 0.00191677 -0.000450361)
(0.00256263 0.000187226 0.000124702)
(0.000496016 0.000173755 4.85714e-05)
(0.000931848 5.37155e-05 -1.96042e-06)
(0.000850596 -2.7841e-06 -3.82216e-07)
(0.000840012 8.40053e-06 1.22112e-08)
(0.000830197 4.45045e-06 1.72279e-08)
(0.000823767 3.39315e-06 3.41721e-08)
(0.000819361 2.18165e-06 4.21341e-08)
(0.00081616 1.47081e-06 6.99777e-08)
(0.00081356 1.00739e-06 5.02471e-08)
(0.00081134 8.4833e-07 1.32229e-07)
(0.000809498 6.83272e-07 6.56765e-08)
(0.000807645 6.13692e-07 -2.00011e-07)
(0.000805887 3.07797e-07 5.1307e-08)
(0.000804203 1.23558e-07 5.03435e-08)
(0.000802484 1.27404e-07 6.60477e-08)
(0.000800823 -7.57981e-08 3.87917e-08)
(0.000799264 -4.62569e-08 4.9544e-08)
(0.000797694 -2.56536e-07 5.63793e-08)
(0.000795956 -2.95435e-07 -1.4028e-07)
(0.000794345 -3.74886e-08 -6.45154e-10)
(0.00079214 -2.59137e-07 4.10375e-08)
(0.0007909 -5.74666e-07 1.67529e-07)
(0.000790476 -4.19262e-08 -1.08685e-08)
(0.000788923 1.78405e-07 1.06736e-07)
(0.000787205 8.51344e-08 1.20865e-07)
(0.000785503 1.90912e-07 6.02787e-08)
(0.00078391 1.14654e-07 4.95912e-08)
(0.000782486 9.47755e-08 4.79997e-08)
(0.00078102 -2.78117e-08 4.40356e-08)
(0.000779571 -4.68375e-08 5.04471e-08)
(0.000778036 -1.08841e-07 4.43309e-08)
(0.000776677 2.86596e-08 4.39857e-08)
(0.000775156 5.91809e-08 9.70377e-08)
(0.000773508 -1.89247e-08 2.87766e-08)
(0.000772162 7.74444e-08 4.02048e-08)
(0.000770701 -8.18482e-08 4.45541e-08)
(0.000769309 9.44715e-09 4.89772e-08)
(0.000767915 2.82795e-08 5.77962e-08)
(0.00076631 1.02651e-07 4.76858e-08)
(0.000764872 4.68878e-07 4.21361e-08)
(0.000763596 3.3581e-07 5.30482e-08)
(0.000762517 2.60957e-07 1.03188e-07)
(0.000761954 -2.86813e-08 6.08979e-08)
(0.0116608 0.0177325 -0.000835063)
(-0.0146044 0.0200258 0.000818981)
(0.00735095 0.00192032 0.00426351)
(0.00580863 0.0131455 1.52876e-05)
(3.30475e-05 0.00282192 0.000467328)
(0.00208318 0.00482979 -0.000181616)
(0.000263992 -0.000755509 4.76073e-06)
(0.000523218 4.2398e-05 2.78558e-06)
(0.00090619 5.59957e-05 -1.65564e-06)
(0.000829469 3.01283e-05 -4.97161e-07)
(0.000831677 1.9285e-05 1.19217e-07)
(0.000823914 1.1672e-05 2.00376e-08)
(0.000820146 7.32048e-06 4.41622e-08)
(0.000817131 4.26112e-06 5.00285e-08)
(0.000814761 2.83288e-06 5.38277e-08)
(0.000812905 1.99177e-06 1.14891e-07)
(0.000811166 1.3805e-06 6.84902e-08)
(0.000809125 9.1942e-07 -3.10612e-08)
(0.000807197 6.47156e-07 7.08646e-08)
(0.000805489 6.52367e-07 7.94674e-08)
(0.00080393 2.01153e-07 4.83073e-08)
(0.000802184 -4.14562e-08 6.17212e-08)
(0.000800612 -8.4597e-08 9.5318e-09)
(0.000799067 -1.55905e-07 5.48812e-08)
(0.000797506 -2.83978e-07 3.62771e-08)
(0.000796331 -3.94654e-07 3.89976e-08)
(0.000794488 -3.34679e-07 7.22117e-08)
(0.000792803 -1.32378e-07 4.53261e-08)
(0.00079166 4.62823e-07 9.07409e-08)
(0.000790143 4.38618e-07 8.14134e-08)
(0.000788474 2.81367e-07 -7.99871e-09)
(0.000786954 1.68797e-07 4.58348e-08)
(0.000785441 -4.70509e-08 6.13802e-08)
(0.000783808 -7.26108e-08 7.71325e-10)
(0.000782304 -1.13973e-07 5.06749e-08)
(0.000780876 -1.68509e-07 8.12052e-08)
(0.000779368 -1.9129e-07 5.1837e-08)
(0.000778107 -2.32841e-07 4.96589e-08)
(0.000776749 -2.96547e-07 6.8212e-08)
(0.000775086 -3.21062e-07 3.94258e-08)
(0.000773761 -1.57401e-07 5.67018e-08)
(0.000772173 -1.54164e-07 -3.66989e-08)
(0.000770701 7.12763e-08 3.79834e-08)
(0.000769374 3.08941e-09 6.86959e-08)
(0.000767929 8.94948e-08 6.20553e-08)
(0.000766843 7.19145e-08 -8.3337e-10)
(0.000765246 2.799e-07 2.51167e-08)
(0.00076356 4.42295e-07 4.47901e-08)
(0.0007621 7.43023e-07 -7.64166e-08)
(0.000761371 4.88614e-07 8.86112e-08)
(0.00378694 -0.00458045 -0.000230577)
(0.000583995 -0.00528001 0.00063917)
(-0.00391051 -0.00088591 -0.00026319)
(0.0023655 0.000677596 0.00137243)
(-0.00495582 0.00275977 -0.00106032)
(0.00372588 0.00310258 4.04602e-05)
(0.00152526 0.00110353 0.000118971)
(0.000447538 5.72183e-05 4.5595e-07)
(0.000848358 5.6592e-05 -1.58709e-06)
(0.000803861 3.41038e-05 -2.80743e-07)
(0.000816693 2.06775e-05 1.84629e-07)
(0.000815085 1.24032e-05 1.15925e-07)
(0.000814408 7.64777e-06 5.72207e-08)
(0.000813692 5.13064e-06 5.53612e-08)
(0.000813286 3.21174e-06 5.39365e-08)
(0.000811721 1.98763e-06 5.78869e-08)
(0.000809984 1.10433e-06 4.7582e-08)
(0.000808571 5.22105e-07 2.50633e-07)
(0.000807304 1.88343e-07 9.81865e-08)
(0.000805325 -9.79127e-08 -8.55731e-09)
(0.000803334 -4.7863e-09 1.57182e-07)
(0.000802127 -2.52084e-08 6.55374e-08)
(0.000800681 4.75012e-08 5.81668e-08)
(0.000799017 1.72566e-08 4.83855e-08)
(0.000797399 1.29594e-07 7.00447e-08)
(0.000795896 1.02353e-07 2.86569e-08)
(0.000794677 -1.34063e-07 1.25568e-07)
(0.000793138 1.05794e-07 5.0827e-08)
(0.000791613 1.36879e-07 2.65991e-08)
(0.000790247 -3.9583e-08 7.83813e-08)
(0.000788584 -3.09506e-08 1.29394e-07)
(0.000786793 -1.36198e-07 4.13096e-08)
(0.000785201 -3.48586e-07 -1.87006e-07)
(0.000783827 -3.73448e-07 2.72516e-08)
(0.000782367 -2.05611e-07 1.80833e-07)
(0.000780925 -1.50566e-07 6.83936e-08)
(0.000779492 -1.56095e-07 5.90487e-08)
(0.000777906 -2.05201e-07 5.14849e-08)
(0.000776569 -5.86998e-07 5.57708e-08)
(0.000775333 -2.7464e-07 6.02542e-08)
(0.00077372 -1.84675e-07 5.93356e-08)
(0.000772449 -2.51647e-07 8.94783e-08)
(0.000770899 -1.05711e-07 1.55385e-08)
(0.000769331 2.31943e-07 4.65962e-08)
(0.000768001 7.59677e-08 -2.62474e-08)
(0.000766546 7.0782e-08 5.1907e-08)
(0.000765331 -2.22277e-07 2.63394e-08)
(0.000764169 7.32026e-08 4.52622e-08)
(0.00076256 1.87194e-07 -4.10156e-08)
(0.000760418 2.94172e-07 6.56217e-08)
(0.00102484 0.00072092 0.000274808)
(0.000224345 0.00513453 -0.00259441)
(-0.012563 -0.00592875 -0.0306581)
(-0.0372576 -0.0171738 -0.00634769)
(-0.0194346 0.00363114 0.000223556)
(-0.00124514 0.00608248 -0.000809015)
(0.000840705 0.00161257 -7.70762e-05)
(0.00122334 0.000162021 -1.00474e-06)
(0.00134709 5.14767e-05 3.19524e-07)
(0.00130092 3.40616e-05 3.35749e-07)
(0.00133657 2.11484e-05 3.41025e-07)
(0.00134321 1.32228e-05 2.70961e-07)
(0.00134989 8.29771e-06 2.5705e-07)
(0.00135139 5.96571e-06 3.81372e-07)
(0.00135053 3.69278e-06 3.50789e-07)
(0.0013498 2.17899e-06 4.13131e-07)
(0.00134838 1.22793e-06 3.37945e-07)
(0.00134625 8.23156e-07 1.3401e-07)
(0.00134371 4.73064e-07 3.68344e-07)
(0.00134179 -1.90608e-07 3.78142e-07)
(0.00133975 2.49237e-08 3.23839e-07)
(0.00133682 3.4436e-07 3.55675e-07)
(0.00133422 3.14922e-07 3.7661e-07)
(0.00133176 2.34199e-07 2.91734e-07)
(0.00132921 5.98131e-07 1.95295e-07)
(0.00132655 9.06278e-07 2.43248e-07)
(0.0013241 7.30104e-07 2.87871e-07)
(0.00132196 3.27793e-07 3.31595e-07)
(0.00131909 4.70245e-07 3.62959e-07)
(0.00131642 -2.90997e-07 3.16409e-07)
(0.00131388 -8.15099e-07 3.58149e-07)
(0.00131091 -8.4174e-07 2.66604e-07)
(0.00130858 -6.89949e-07 3.38034e-07)
(0.00130675 -2.73576e-07 1.95768e-07)
(0.00130442 -2.60417e-09 3.18085e-07)
(0.00130165 2.7744e-08 3.30529e-07)
(0.0012989 1.05993e-07 3.09416e-07)
(0.00129603 3.25501e-07 2.32705e-07)
(0.00129445 8.85722e-07 2.89234e-07)
(0.00129267 3.34157e-07 3.67165e-07)
(0.00128977 6.83655e-08 2.86667e-07)
(0.00128723 -5.35527e-08 3.34845e-07)
(0.00128558 -5.27846e-07 4.78181e-07)
(0.00128272 -5.33375e-07 2.18454e-07)
(0.0012797 -2.6001e-07 3.33551e-07)
(0.00127758 -9.4899e-08 3.34229e-07)
(0.00127544 3.98098e-09 2.79797e-07)
(0.0012735 -2.55911e-07 3.11626e-07)
(0.00127063 -5.49038e-07 3.14262e-07)
(0.00126789 -5.20097e-07 1.90109e-07)
(0.00242481 -0.00680926 -0.000593124)
(0.00784304 -0.00148906 5.90341e-05)
(0.00312196 -0.000327545 0.00054578)
(0.00373552 -0.0044414 -0.0014056)
(0.0100376 -0.00380208 -0.00103527)
(0.00253751 -0.0034268 0.000314514)
(0.000193473 0.000470343 0.000184401)
(0.00115575 2.69776e-05 2.25371e-07)
(0.00136041 -2.22652e-05 4.12498e-07)
(0.00129728 -5.26467e-06 3.24927e-07)
(0.00133213 -3.51043e-06 3.33772e-07)
(0.00134042 -9.48214e-07 3.19976e-07)
(0.00134689 -3.6533e-07 3.39156e-07)
(0.00134939 -5.33416e-07 3.37426e-07)
(0.00134995 -2.29864e-07 3.37495e-07)
(0.0013492 -5.94984e-08 2.72355e-07)
(0.00134783 -1.07004e-09 -1.00858e-07)
(0.00134632 -6.85647e-08 3.88775e-07)
(0.00134389 3.40692e-07 3.2617e-07)
(0.00134135 4.53133e-07 3.06271e-07)
(0.00133932 4.3332e-07 3.91359e-07)
(0.00133699 1.47132e-07 3.77939e-07)
(0.00133416 4.28744e-07 3.54308e-07)
(0.00133192 4.44854e-07 6.56789e-07)
(0.00132969 4.33931e-07 4.26084e-08)
(0.00132657 9.64696e-08 3.34784e-07)
(0.00132369 7.7504e-08 3.40791e-07)
(0.0013215 -2.11404e-07 3.30442e-07)
(0.00131858 -8.66331e-07 3.41608e-07)
(0.00131552 -5.57036e-07 3.68072e-08)
(0.00131359 -4.98245e-07 2.77409e-08)
(0.0013114 -2.63959e-07 2.70691e-07)
(0.00130934 6.8582e-07 4.59148e-07)
(0.00130726 7.68632e-07 5.67054e-07)
(0.00130439 2.88229e-07 3.29581e-07)
(0.00130177 2.69988e-07 2.42002e-07)
(0.0012996 3.33383e-07 3.11872e-07)
(0.0012975 6.31921e-07 8.93316e-08)
(0.00129429 1.06037e-06 3.72894e-07)
(0.00129128 5.93673e-07 2.74061e-07)
(0.00128916 1.0501e-07 3.21423e-07)
(0.00128673 -1.21751e-07 3.67101e-07)
(0.00128428 -3.68814e-07 2.62595e-07)
(0.00128266 -8.66517e-07 3.72595e-07)
(0.0012807 -2.2765e-07 3.49359e-07)
(0.00127801 -1.18347e-07 3.22422e-07)
(0.00127546 2.55931e-07 2.92634e-07)
(0.00127295 -3.33384e-08 3.13348e-07)
(0.00127056 -3.27298e-07 5.4781e-08)
(0.00126876 -3.40539e-07 4.02102e-07)
(-0.00234502 -0.0038117 0.000127755)
(-0.00231711 0.000982818 0.000270239)
(-0.00262697 0.00639709 -0.000625106)
(-0.004616 -5.42384e-05 -0.00604135)
(0.00939948 0.00237334 0.00910627)
(-0.00444553 0.00787577 9.77958e-05)
(0.00187243 -0.00101255 -8.4503e-06)
(0.00132962 -0.000146964 1.15095e-05)
(0.00140018 -0.000108729 -4.26816e-07)
(0.00132489 -1.12735e-05 3.26868e-07)
(0.00134204 -2.18927e-05 5.67211e-07)
(0.00134718 -1.14511e-05 3.91243e-07)
(0.00135043 -7.97376e-06 5.39328e-07)
(0.00135157 -5.12255e-06 3.3973e-07)
(0.00135113 -3.2451e-06 3.38295e-07)
(0.00135009 -2.14996e-06 3.3431e-07)
(0.00134838 -1.29919e-06 3.38987e-07)
(0.00134668 -9.24553e-07 3.46777e-07)
(0.00134436 -1.13345e-06 2.01135e-07)
(0.00134191 -5.09284e-07 2.86011e-07)
(0.00133936 -3.28084e-07 3.01785e-07)
(0.00133681 -1.64328e-07 3.28707e-07)
(0.00133458 -1.64952e-07 4.33205e-07)
(0.00133176 -5.35234e-10 3.02378e-07)
(0.00132877 -4.48364e-07 2.893e-07)
(0.0013261 -3.75613e-07 3.24994e-07)
(0.00132371 -2.25926e-07 1.50849e-07)
(0.00132078 -7.13537e-08 3.22908e-07)
(0.00131866 -2.06007e-07 4.60505e-08)
(0.00131689 7.50921e-07 2.49135e-07)
(0.00131425 9.79948e-07 5.81218e-07)
(0.00131239 1.02242e-06 4.75596e-07)
(0.00130987 8.21126e-07 2.31804e-07)
(0.00130625 4.99329e-07 1.58215e-07)
(0.00130379 1.77173e-07 3.35954e-07)
(0.0013017 2.3463e-07 3.33043e-07)
(0.00129935 1.38191e-07 4.14009e-07)
(0.00129694 -1.75919e-08 3.4965e-07)
(0.00129439 -2.76319e-07 3.10192e-07)
(0.00129147 3.8089e-08 3.89704e-07)
(0.00128887 4.26067e-08 3.45794e-07)
(0.00128664 1.82127e-07 1.83397e-07)
(0.00128465 6.79473e-07 3.24431e-07)
(0.0012829 7.26761e-07 4.26051e-07)
(0.00128064 4.61846e-07 3.43788e-07)
(0.00127819 3.41488e-07 3.13048e-07)
(0.00127555 3.62423e-07 3.97471e-07)
(0.00127277 5.50385e-07 1.99244e-07)
(0.00127025 2.48377e-07 3.26215e-07)
(0.00126872 1.87234e-07 5.15425e-07)
(0.00757156 0.0177719 0.0019865)
(0.00699726 -0.00028925 -0.00148029)
(0.0075172 -0.00366504 -9.68944e-05)
(0.0129594 0.0167435 -0.00673499)
(-0.0138643 0.0036655 -0.0184494)
(0.0030038 -0.00652293 -0.00180892)
(0.00195127 -0.00112421 -4.30758e-05)
(0.001094 -0.000201034 4.07408e-05)
(0.00128673 -9.17781e-05 1.57921e-07)
(0.00142971 -3.36152e-05 6.67179e-07)
(0.00133233 -3.64e-05 3.36826e-07)
(0.00135799 -1.97321e-05 3.3985e-07)
(0.00135491 -1.34672e-05 3.39696e-07)
(0.00135537 -8.24546e-06 3.39511e-07)
(0.00135371 -4.88733e-06 3.38515e-07)
(0.00135166 -2.9359e-06 3.38539e-07)
(0.00134938 -2.02862e-06 3.37617e-07)
(0.00134654 -1.18455e-06 2.13464e-07)
(0.00134442 -1.15367e-06 3.11148e-07)
(0.00134236 -1.21591e-06 3.09686e-07)
(0.00133975 -8.90317e-07 3.19464e-07)
(0.0013372 -5.05904e-07 3.34052e-07)
(0.00133436 -6.28656e-07 1.54251e-07)
(0.00133156 -5.0137e-07 3.7988e-07)
(0.00132923 -3.90142e-07 2.85799e-07)
(0.00132685 7.17858e-08 2.64075e-07)
(0.00132407 3.64796e-07 3.94782e-07)
(0.00132153 7.39996e-07 4.06148e-07)
(0.00131961 1.43306e-06 3.08627e-07)
(0.001317 1.01629e-06 3.06805e-07)
(0.00131392 8.08757e-07 3.89837e-07)
(0.00131119 9.73963e-07 3.05194e-07)
(0.00130868 1.49158e-07 3.20232e-07)
(0.00130645 -2.52279e-08 3.26133e-07)
(0.00130405 1.87888e-07 2.13306e-07)
(0.00130172 9.79952e-08 3.28534e-07)
(0.00129929 -2.06744e-08 4.41458e-07)
(0.00129698 -1.80064e-07 3.03516e-07)
(0.00129436 -4.9948e-07 1.9959e-07)
(0.00129168 -5.93782e-07 1.94128e-07)
(0.00128934 -2.2598e-08 3.14837e-07)
(0.00128752 3.50104e-07 4.51756e-07)
(0.00128496 5.13036e-07 4.59111e-07)
(0.00128238 4.94706e-07 1.81471e-07)
(0.00128022 9.89425e-08 3.42955e-07)
(0.00127788 3.48893e-08 3.18687e-07)
(0.00127572 9.08841e-08 3.75922e-07)
(0.0012728 4.14837e-07 1.48405e-07)
(0.0012701 3.28931e-07 3.62044e-07)
(0.00126821 4.35465e-07 5.35532e-07)
(0.0110973 0.00668599 -0.00900815)
(-0.0289949 -0.00836842 -0.00419034)
(-0.000912883 -0.0131917 -0.00871224)
(0.0158896 0.0273148 -0.0240161)
(-0.0493472 -0.00348858 0.00430445)
(-0.0055716 -0.00290533 0.00286932)
(-0.000956393 -0.000428487 -6.05002e-05)
(0.00039375 -0.00221657 1.31116e-05)
(0.00149065 -0.000115167 3.78762e-07)
(0.00150753 -5.59322e-05 -2.73293e-08)
(0.00135988 -3.65387e-05 2.93019e-07)
(0.00137611 -2.22154e-05 3.55643e-07)
(0.00136495 -1.33394e-05 4.19439e-07)
(0.00136239 -8.61659e-06 3.41339e-07)
(0.00135783 -5.86882e-06 3.25216e-07)
(0.0013537 -3.84063e-06 3.24624e-07)
(0.00135059 -2.34853e-06 3.38351e-07)
(0.00134778 -1.5685e-06 3.34496e-07)
(0.00134433 -4.67659e-07 3.23224e-07)
(0.00134224 4.78941e-08 3.22241e-07)
(0.00134026 -1.71266e-07 3.69377e-07)
(0.00133715 -1.65034e-07 4.90407e-07)
(0.0013346 -7.51455e-08 6.70488e-07)
(0.00133207 5.94345e-08 3.79684e-07)
(0.00132949 2.48156e-07 2.57572e-07)
(0.00132704 -1.62583e-08 3.67669e-07)
(0.00132454 3.08591e-07 3.85019e-07)
(0.00132211 5.07019e-07 3.30172e-07)
(0.00131899 7.85379e-07 2.92303e-07)
(0.0013161 5.19973e-07 3.18143e-07)
(0.00131419 3.15869e-07 2.68674e-07)
(0.00131156 -2.16654e-07 3.23614e-07)
(0.00130861 2.51144e-07 3.06654e-07)
(0.00130629 1.7779e-07 3.24087e-07)
(0.00130395 2.72219e-07 3.36096e-07)
(0.00130144 4.44965e-08 3.22616e-07)
(0.001299 -5.06296e-08 3.50668e-07)
(0.00129634 -2.15427e-07 3.28316e-07)
(0.00129388 -2.81207e-07 3.1923e-07)
(0.00129207 -3.61843e-07 1.97467e-07)
(0.00129005 -2.85707e-08 4.00692e-07)
(0.00128731 1.69221e-07 4.07102e-07)
(0.00128483 -1.07707e-07 1.44163e-07)
(0.00128238 8.88798e-08 -4.19114e-08)
(0.00128006 -2.83357e-07 3.1719e-07)
(0.00127818 -4.24949e-07 3.18926e-07)
(0.00127603 -8.93929e-07 1.2178e-07)
(0.00127306 -1.32352e-06 2.77177e-07)
(0.00127027 -4.98037e-07 5.10879e-07)
(0.00126777 8.59275e-08 3.28094e-07)
(0.00172511 0.00544264 -0.00142819)
(0.10125 -0.0255836 -0.0173604)
(-0.00246906 -0.0133346 -0.0424366)
(0.00613775 -0.0248451 -0.00107045)
(0.0156712 0.0283416 -0.0113329)
(0.0194597 0.0171339 0.00104876)
(0.0019369 -0.000963507 -8.82353e-06)
(0.000503542 -0.000566769 3.19595e-05)
(0.00146892 -7.84439e-05 1.83053e-06)
(0.00152845 -2.23327e-05 3.07823e-07)
(0.00137557 -1.38883e-05 3.65112e-07)
(0.00138724 -1.07249e-05 3.14417e-07)
(0.00137206 -6.60475e-06 3.46361e-07)
(0.00136481 -4.66176e-06 3.41341e-07)
(0.00135975 -3.45111e-06 3.6894e-07)
(0.0013561 -2.48892e-06 3.53678e-07)
(0.00135225 -1.51519e-06 3.39218e-07)
(0.00134891 -9.68344e-07 3.81384e-07)
(0.00134645 -6.53519e-07 3.38224e-07)
(0.00134274 3.1036e-07 3.84914e-07)
(0.00133949 1.96075e-07 3.72698e-07)
(0.00133732 1.74737e-07 5.33701e-07)