/*--------------------------------*- C++ -*----------------------------------*\
| =========                 |                                                 |
| \\      /  F ield         | OpenFOAM: The Open Source CFD Toolbox           |
|  \\    /   O peration     | Version:  5.0                                   |
|   \\  /    A nd           | Web:      www.OpenFOAM.org                      |
|    \\/     M anipulation  |                                                 |
\*---------------------------------------------------------------------------*/
FoamFile
{
    version     2.0;
    format      ascii;
    class       volVectorField;
    location    "5";
    object      U_0;
}
// * * * * * * * * * * * * * * * * * * * * * * * * * * * * * * * * * * * * * //

dimensions      [0 1 -1 0 0 0 0];

internalField   nonuniform List<vector> 
9655
(
(0.00121329 0.00220267 2.2639e-05)
(-0.00251434 0.00630603 -0.000332062)
(0.00210894 -0.000189542 0.000922963)
(-0.00211271 -0.0134675 -0.00086935)
(-0.00411437 0.00557401 -6.59732e-05)
(-0.00127645 0.00229081 -3.93499e-05)
(0.0012425 0.000621471 2.23569e-05)
(0.000347109 6.80348e-05 -6.44021e-07)
(0.000744863 3.89453e-05 -1.14982e-06)
(0.000744013 2.42554e-05 -4.38161e-07)
(0.000780437 1.42802e-05 2.06039e-07)
(0.000794116 8.5829e-06 4.77318e-08)
(0.000804307 5.22868e-06 2.73717e-09)
(0.000809122 3.5714e-06 7.06413e-08)
(0.00081119 2.21735e-06 4.60121e-08)
(0.000812187 1.30546e-06 1.83116e-07)
(0.000812425 8.95244e-07 4.97193e-08)
(0.00081175 9.13043e-07 6.58287e-08)
(0.000810575 6.16736e-07 5.19214e-08)
(0.000809665 3.0298e-07 1.98274e-07)
(0.000808456 2.274e-07 6.41215e-08)
(0.000807111 2.9886e-07 -1.53615e-07)
(0.000805807 2.21016e-07 6.04168e-08)
(0.000804339 1.97615e-07 4.78431e-08)
(0.000803027 3.96923e-07 7.68205e-08)
(0.000801602 4.38498e-07 -1.31304e-08)
(0.000800387 4.86874e-07 6.08408e-08)
(0.000799425 2.01968e-07 4.99983e-08)
(0.000797488 2.68068e-07 1.56866e-07)
(0.00079575 -2.19239e-07 5.90282e-08)
(0.000794598 -6.33888e-07 -5.16413e-08)
(0.000793177 -5.47096e-07 6.83595e-08)
(0.000791768 -3.8497e-07 3.83301e-08)
(0.000790729 -1.14629e-07 3.61896e-08)
(0.000789414 6.13017e-08 4.10941e-08)
(0.000787806 -3.87027e-09 4.17381e-08)
(0.000786382 3.35059e-09 3.40131e-08)
(0.000784926 7.04317e-08 4.05607e-08)
(0.000783518 3.44286e-07 -3.57322e-08)
(0.00078246 4.19287e-07 6.68789e-08)
(0.000781327 5.19766e-08 3.08688e-08)
(0.000779907 -6.99923e-08 7.35095e-08)
(0.000778441 -5.36e-07 2.0888e-08)
(0.000776809 -3.54163e-07 2.37821e-07)
(0.000775476 -2.43811e-07 6.29812e-08)
(0.000774154 -2.26227e-07 -4.41807e-09)
(0.000772793 -3.51054e-07 4.85764e-08)
(0.000771559 -5.35847e-07 4.13743e-08)
(0.00076984 -3.61129e-07 -1.63406e-08)
(0.000768021 -2.25539e-07 8.02107e-08)
(0.002673 -0.00220021 -0.00015295)
(0.00346689 0.00597793 -1.11096e-05)
(0.00456248 0.000979339 3.27365e-05)
(0.00247884 -0.0116986 -4.96148e-05)
(-0.00341117 -0.00431971 -7.37662e-05)
(0.00248518 -0.000620536 0.000116476)
(0.000532329 8.11598e-05 0.000102255)
(0.000304139 -9.70409e-06 -2.20134e-06)
(0.000749716 -4.28968e-05 -1.08683e-06)
(0.000743783 -2.37373e-05 -4.29852e-07)
(0.000780006 -1.55998e-05 1.36804e-07)
(0.000794385 -9.32999e-06 4.51e-08)
(0.000803926 -5.75162e-06 5.72854e-08)
(0.000808899 -3.8108e-06 4.75865e-08)
(0.000811327 -2.36484e-06 4.82252e-08)
(0.000812345 -1.569e-06 5.54931e-08)
(0.000812621 -8.68159e-07 3.45571e-08)
(0.000812058 -7.4318e-07 4.74941e-08)
(0.000810779 -2.28466e-07 3.33236e-08)
(0.00080957 -1.05813e-07 1.84628e-08)
(0.000808522 1.2267e-08 8.34414e-08)
(0.000807158 1.09061e-07 5.86573e-08)
(0.000805697 3.04775e-07 4.54418e-08)
(0.000804623 2.92877e-07 1.61629e-08)
(0.000803283 4.01204e-07 2.37793e-08)
(0.000801769 1.79723e-07 6.2943e-08)
(0.000800109 2.60529e-07 2.17483e-08)
(0.000798556 -5.44247e-08 4.52817e-08)
(0.000797136 -6.82099e-07 2.26067e-08)
(0.000795498 -3.75075e-07 7.91009e-08)
(0.000794447 -3.88551e-07 1.28483e-07)
(0.000793444 -2.05124e-07 3.30848e-08)
(0.00079223 2.40268e-07 1.83146e-07)
(0.000790985 4.65243e-07 3.15295e-07)
(0.000789339 1.16129e-07 4.84452e-08)
(0.000787779 1.49481e-07 7.57211e-08)
(0.000786621 1.99366e-07 4.3826e-08)
(0.000785324 2.26891e-07 5.54192e-08)
(0.000783822 3.57415e-07 3.24965e-08)
(0.000782168 4.89191e-07 7.07783e-08)
(0.000780647 1.36662e-07 1.37912e-08)
(0.000779218 -8.11989e-08 7.1327e-08)
(0.000778082 -4.48652e-07 6.52144e-08)
(0.000777134 -4.01494e-07 3.73789e-08)
(0.000775639 -1.66844e-07 6.35859e-08)
(0.000773989 -1.07666e-07 5.98106e-08)
(0.000772764 9.81269e-08 5.00854e-08)
(0.00077149 -1.20561e-07 5.95091e-08)
(0.000769857 -3.50819e-07 1.05315e-07)
(0.000768877 -2.38784e-07 2.99962e-08)
(-0.0028256 0.00659854 0.000252194)
(-0.00551224 0.00792837 4.39465e-05)
(-0.00265612 0.00795704 0.000740306)
(-0.0061613 -0.0128343 -4.99165e-05)
(0.00762465 0.0136359 -0.000363794)
(-0.00476108 0.0021164 -8.4244e-05)
(0.000593658 -0.000692854 2.54469e-05)
(0.000241067 -5.93314e-05 3.17811e-06)
(0.000811443 -0.000126882 -2.28333e-06)
(0.000778388 -4.79132e-05 -3.70053e-07)
(0.00079851 -3.80575e-05 7.88031e-08)
(0.000806465 -2.20049e-05 5.13017e-08)
(0.000811227 -1.40934e-05 5.0709e-08)
(0.000813369 -8.79345e-06 4.90419e-08)
(0.000814002 -5.52069e-06 5.04467e-08)
(0.000814063 -3.45807e-06 4.02676e-08)
(0.000813461 -2.24291e-06 4.60256e-08)
(0.000812552 -1.69676e-06 7.202e-08)
(0.000811373 -1.35209e-06 1.00781e-07)
(0.000809966 -6.94933e-07 6.98419e-08)
(0.000808724 -4.37853e-07 2.14938e-07)
(0.000807475 -2.82187e-07 4.37512e-08)
(0.000806035 -1.52354e-07 4.72874e-08)
(0.000804457 -4.04724e-08 -1.0316e-07)
(0.000802883 -2.93121e-07 5.47806e-08)
(0.000801423 -2.16207e-07 7.37172e-08)
(0.000800094 -3.10852e-07 5.08214e-08)
(0.000798248 -7.46537e-08 6.4791e-08)
(0.000797091 1.42405e-07 1.15074e-07)
(0.000796121 5.35933e-07 2.01078e-08)
(0.000794813 7.57864e-07 9.91549e-08)
(0.000793964 6.04945e-07 5.85143e-08)
(0.000792604 3.87041e-07 2.87476e-07)
(0.000790571 2.6243e-07 1.14222e-07)
(0.000789016 3.28927e-08 4.49531e-08)
(0.000787908 1.49828e-07 5.25122e-08)
(0.000786477 1.24116e-07 5.63647e-08)
(0.00078512 3.99019e-09 4.69496e-08)
(0.000783842 1.12564e-08 4.5868e-08)
(0.00078218 -1.05542e-07 3.73455e-08)
(0.000780612 3.62699e-08 -4.33069e-09)
(0.000779176 1.10455e-07 6.58063e-08)
(0.000778044 4.54131e-07 1.39758e-07)
(0.000777165 3.07369e-07 9.682e-08)
(0.000775847 2.64824e-07 7.77948e-08)
(0.000774487 2.87557e-07 1.07609e-07)
(0.000772778 5.67379e-07 7.94297e-08)
(0.000770999 2.43122e-07 6.67499e-08)
(0.000769699 1.87134e-07 -1.64354e-08)
(0.000768756 9.26356e-08 7.11056e-08)
(-0.00065808 -0.00150416 0.000673888)
(-0.00193409 -0.00391006 0.000594897)
(-0.00404714 -0.00785948 0.000423397)
(0.00384807 0.00456162 -0.00094297)
(-0.0131924 5.57407e-06 -0.00103062)
(-0.020889 0.00815869 -0.0007255)
(0.000725563 -0.000774192 -1.31233e-05)
(0.000460347 -0.000265251 3.41031e-05)
(0.000441035 -8.6109e-05 -1.13847e-06)
(0.000873106 -6.52163e-05 -1.00886e-06)
(0.000812681 -4.83777e-05 -4.0649e-07)
(0.000824473 -2.76423e-05 1.60508e-07)
(0.00082052 -1.76563e-05 3.80805e-08)
(0.000819667 -1.08206e-05 5.97622e-08)
(0.000818028 -6.65249e-06 4.93358e-08)
(0.000816463 -4.06259e-06 4.87291e-08)
(0.000814836 -2.65024e-06 4.79151e-08)
(0.000813182 -1.62123e-06 6.63532e-08)
(0.000812039 -1.15589e-06 6.31477e-08)
(0.000810719 -8.0142e-07 2.69291e-08)
(0.000809041 -5.13753e-07 -1.40493e-07)
(0.000807518 -4.12408e-07 4.89221e-08)
(0.000806 -4.30319e-07 2.70321e-08)
(0.000804449 -3.11362e-07 6.65329e-08)
(0.000803065 -2.17442e-07 6.28121e-08)
(0.000801749 1.60477e-08 4.23193e-08)
(0.000800287 1.28094e-07 6.28541e-08)
(0.000799123 2.5611e-07 7.28499e-08)
(0.000797897 8.68597e-07 6.13807e-08)
(0.000796263 5.9917e-07 1.9605e-08)
(0.000794527 8.11847e-07 4.48163e-09)
(0.000792975 7.88248e-07 -9.85414e-08)
(0.000791798 2.43268e-07 4.73668e-08)
(0.00079054 -3.92071e-08 5.07876e-08)
(0.000789197 1.29881e-07 4.86916e-08)
(0.000787892 6.64085e-08 3.91723e-08)
(0.000786438 2.75478e-08 3.70687e-08)
(0.000785182 -1.77527e-08 4.87033e-08)
(0.000783685 -3.12306e-07 1.31803e-08)
(0.0007822 -2.79989e-07 2.93219e-08)
(0.000780916 -1.97814e-08 -3.11061e-08)
(0.000779738 1.18035e-07 4.43011e-08)
(0.000778324 2.30461e-07 1.15071e-07)
(0.000776893 3.96934e-07 -3.10503e-08)
(0.00077561 1.18553e-07 -2.73515e-08)
(0.000774364 3.50548e-08 4.1711e-08)
(0.000772704 -1.23681e-07 9.03462e-08)
(0.000771012 6.14375e-08 4.47047e-08)
(0.000769665 2.41406e-07 3.84931e-08)
(0.000768527 2.28685e-07 4.85961e-08)
(0.0125882 -0.00883699 -0.000647371)
(-0.00423525 -0.0250655 0.000686429)
(0.0023946 -0.00467982 -0.000529433)
(0.0192192 0.0187741 0.000116468)
(-0.0516226 0.00239847 -0.00328686)
(0.00403992 0.000313744 3.31103e-05)
(7.30552e-05 -0.00038949 3.88083e-06)
(0.00211782 0.00035641 0.000138762)
(0.000548441 -7.60323e-05 -1.35208e-06)
(0.000949667 -5.94632e-05 -1.7776e-06)
(0.000845837 -3.7799e-05 -5.38613e-07)
(0.00084506 -2.30101e-05 1.43293e-07)
(0.000832369 -1.38592e-05 1.28225e-07)
(0.000827196 -8.63942e-06 5.53875e-08)
(0.000822494 -5.45775e-06 3.21835e-08)
(0.000819093 -3.43524e-06 3.75519e-08)
(0.000816529 -2.11188e-06 4.83698e-08)
(0.000814431 -1.27052e-06 4.75089e-08)
(0.000812405 -6.38534e-07 2.37239e-07)
(0.000810774 -4.58462e-07 -1.86344e-08)
(0.000809215 -2.77797e-07 6.03345e-08)
(0.000807584 -1.44065e-07 1.11468e-08)
(0.000806165 -1.13337e-07 7.66124e-08)
(0.000804726 -3.2351e-08 9.41327e-08)
(0.000803294 9.30249e-08 1.3301e-07)
(0.000801856 6.08443e-08 6.23412e-08)
(0.000800392 1.33793e-07 6.71804e-08)
(0.000799169 1.70514e-07 3.09255e-08)
(0.000797513 2.54949e-08 9.9236e-09)
(0.000796043 1.03124e-07 7.54554e-08)
(0.000795042 7.58636e-08 -7.02251e-08)
(0.000793247 -3.5197e-08 8.70875e-09)
(0.000791566 1.84199e-07 4.42302e-08)
(0.000790427 8.88267e-08 5.13347e-08)
(0.000789147 1.39549e-07 4.80573e-08)
(0.000787779 1.15819e-08 4.91131e-08)
(0.000786371 -6.71675e-08 4.74667e-08)
(0.000784696 -8.28613e-08 5.28581e-08)
(0.000783517 -1.15542e-07 1.00363e-07)
(0.000782548 1.84393e-08 8.50283e-08)
(0.00078111 6.83954e-08 2.59724e-08)
(0.000779487 1.4235e-07 2.17196e-07)
(0.000778389 1.60883e-07 4.17333e-08)
(0.000777022 9.31243e-08 8.76688e-08)
(0.000775392 -8.87156e-08 4.05053e-08)
(0.000774184 -2.19517e-07 4.74998e-08)
(0.000772811 -5.3094e-07 -4.4564e-08)
(0.000771455 -3.86069e-07 -5.57121e-09)
(0.000769902 -2.41872e-07 9.59332e-08)
(0.000768171 1.00297e-07 9.06721e-08)
(0.00943199 -0.0094566 0.000306987)
(0.00966858 0.00349111 -0.00110175)
(0.0156098 -0.0029766 0.000976883)
(0.0075257 -0.00789356 -0.00033931)
(-0.0117359 0.0155919 -0.000207901)
(0.00966311 0.00405864 0.000562647)
(0.0014768 -0.000680763 -1.69145e-05)
(0.00205581 -0.000254211 0.000143903)
(0.000559167 -1.66026e-05 3.55087e-07)
(0.000971011 -8.56877e-06 -1.56849e-06)
(0.000858949 -6.75821e-06 -5.43455e-07)
(0.000854575 -5.86478e-06 1.45931e-07)
(0.000838591 -3.79077e-06 -6.93163e-08)
(0.000830235 -2.69074e-06 4.60442e-08)
(0.000824575 -1.80776e-06 4.30575e-08)
(0.000820672 -1.24886e-06 9.47376e-08)
(0.000817559 -7.85664e-07 5.02871e-08)
(0.000815034 -5.09494e-07 6.24199e-08)
(0.00081306 -3.89501e-07 1.7528e-08)
(0.000811173 -6.61896e-08 8.63131e-08)
(0.000809436 -6.50891e-08 5.74321e-08)
(0.000807725 4.50227e-08 3.91807e-08)
(0.000806141 1.487e-07 6.67435e-08)
(0.000804707 9.44931e-08 6.92536e-08)
(0.000803182 1.06309e-07 5.08167e-08)
(0.000801799 4.04652e-08 5.688e-08)
(0.000800423 -6.02849e-08 5.30281e-08)
(0.000798986 -1.63008e-07 1.70623e-08)
(0.000797811 -1.59373e-07 8.67856e-08)
(0.000796324 -2.61866e-07 -6.12797e-09)
(0.000794353 -5.42842e-07 -2.0589e-08)
(0.000793108 -4.57086e-07 1.44368e-07)
(0.000791952 -2.88857e-07 1.48003e-08)
(0.000790482 -1.44082e-07 5.33262e-08)
(0.000789099 -1.61705e-07 2.48982e-08)
(0.000787633 -5.75088e-08 4.3737e-08)
(0.000786321 -5.85961e-08 5.99875e-08)
(0.000785123 1.55065e-08 6.21411e-08)
(0.000783813 2.87776e-07 1.04912e-07)
(0.00078243 1.62976e-07 7.17992e-08)
(0.000781071 1.64557e-07 6.60314e-08)
(0.000779854 1.74441e-07 1.52256e-08)
(0.000778263 2.5791e-07 5.17473e-08)
(0.000776582 -1.36968e-08 5.25643e-08)
(0.000775221 2.32639e-08 4.07694e-08)
(0.000773814 -1.73138e-07 4.81763e-08)
(0.0007725 -4.78051e-07 -3.37108e-07)
(0.000771377 -5.60513e-07 5.37093e-08)
(0.000770274 -4.87453e-07 9.85249e-08)
(0.000768704 -1.79239e-07 1.83335e-07)
(0.00554495 0.0168177 -0.00121476)
(-0.01887 0.000537762 0.00419532)
(0.0152536 -0.00299831 0.00247355)
(-0.000539843 0.000389262 -0.000378275)
(0.00489081 0.00507148 0.000677429)
(8.36199e-05 0.00594365 0.000144553)
(-0.000536646 -0.000724318 8.35661e-06)
(0.00183397 -0.000370343 3.40519e-05)
(0.000551198 4.40297e-05 8.76784e-07)
(0.000932418 1.55523e-05 -1.23849e-06)
(0.000849206 1.77645e-05 -4.03155e-07)
(0.000848833 9.17777e-06 1.71885e-07)
(0.000836381 5.61128e-06 3.68079e-08)
(0.000829704 3.43109e-06 5.50003e-08)
(0.000824316 2.127e-06 3.92035e-08)
(0.000820384 1.41586e-06 5.10467e-08)
(0.000817462 9.1106e-07 4.98332e-08)
(0.000814932 5.70708e-07 4.72228e-08)
(0.000812962 4.39861e-07 4.64154e-08)
(0.000811181 1.467e-07 7.38469e-08)
(0.000809353 1.18339e-07 4.2569e-08)
(0.000807849 5.58385e-08 4.47726e-08)
(0.000806225 1.40009e-07 1.86364e-08)
(0.000804671 4.47633e-08 4.73106e-08)
(0.000803225 1.12769e-07 2.14438e-09)
(0.000801647 1.2199e-07 5.44901e-08)
(0.000800138 -8.64437e-08 6.75713e-08)
(0.000799046 -1.28497e-07 6.61487e-08)
(0.000797392 -4.53315e-07 2.85133e-08)
(0.000795566 -6.40144e-07 -2.74468e-08)
(0.000794802 -3.85304e-07 1.47902e-07)
(0.000793569 -1.53157e-07 8.60016e-08)
(0.000791961 -1.57435e-07 3.9966e-08)
(0.000790589 -1.10619e-07 3.41131e-08)
(0.000789257 -1.02563e-07 1.87619e-07)
(0.000787909 8.22226e-09 7.40391e-08)
(0.000786463 1.44251e-07 5.07574e-08)
(0.000785129 1.85463e-07 4.49889e-08)
(0.0007837 1.8065e-07 7.03325e-08)
(0.000782392 2.84596e-07 2.66108e-08)
(0.000781124 1.34514e-07 4.07355e-08)
(0.000779603 7.62098e-08 5.45764e-09)
(0.000778154 -1.25942e-07 6.4562e-08)
(0.000776729 -1.2321e-07 6.4102e-08)
(0.000775194 -1.1403e-07 1.23067e-08)
(0.000773559 -1.58428e-08 4.99527e-08)
(0.000772331 -2.48439e-08 1.2664e-08)
(0.000771448 -2.6571e-07 7.04417e-08)
(0.000770387 -2.21535e-07 2.81374e-08)
(0.000769002 -3.23212e-07 7.2492e-08)
(-0.00231459 -0.00179345 0.000326212)
(0.015563 -0.0159481 -0.00219755)
(0.00426835 -0.00736452 -0.000174718)
(0.00742036 -0.0106723 0.000320565)
(0.00492461 -0.000900601 0.00203414)
(0.00354546 0.00195082 -0.000358939)
(0.00237418 0.000380119 0.000114033)
(0.000492076 0.000226807 4.61602e-05)
(0.000942108 0.000123958 -1.95862e-06)
(0.00086406 3.76818e-05 -2.66207e-07)
(0.000851101 3.39642e-05 5.10433e-08)
(0.000839351 2.03997e-05 6.28087e-08)
(0.000831392 1.3316e-05 4.3045e-08)
(0.000825869 8.3282e-06 4.74299e-08)
(0.000822049 5.19791e-06 2.18662e-07)
(0.000819147 3.29433e-06 4.86449e-08)
(0.000816499 2.03409e-06 1.06862e-07)
(0.000814442 1.31256e-06 5.02174e-08)
(0.000812528 9.03836e-07 8.40408e-08)
(0.00081077 5.13745e-07 2.38443e-08)
(0.000809322 2.77075e-07 4.87291e-08)
(0.000807751 8.00071e-08 6.31156e-08)
(0.000806127 -1.69009e-07 3.50968e-08)
(0.000804672 -1.06121e-07 4.74753e-08)
(0.000803277 -3.26212e-07 6.36876e-08)
(0.00080155 -3.26045e-07 1.07822e-09)
(0.000800111 -1.21643e-07 -2.06971e-07)
(0.000798531 -5.83657e-08 6.03279e-08)
(0.000797176 -2.64753e-07 3.37743e-08)
(0.000796415 1.8094e-07 -7.41949e-08)
(0.000794967 3.6321e-07 1.07494e-07)
(0.000793396 1.10812e-07 3.87552e-08)
(0.000792007 1.45904e-07 6.44936e-08)
(0.000790552 8.36364e-08 4.80184e-08)
(0.000789249 5.484e-08 4.44348e-08)
(0.000787942 -2.1296e-08 6.42166e-08)
(0.000786542 -3.16802e-08 5.10859e-08)
(0.000785168 -4.15627e-08 3.53167e-08)
(0.000783935 1.24667e-07 4.13814e-08)
(0.000782371 1.74688e-07 1.09086e-08)
(0.000780809 -1.99615e-08 9.54629e-09)
(0.000779528 -1.23508e-08 4.08359e-08)
(0.000778014 -5.83725e-08 -5.09256e-08)
(0.000776598 -5.33024e-08 3.88679e-08)
(0.000775356 -2.45514e-08 5.05344e-08)
(0.000773927 1.34018e-07 4.82686e-08)
(0.000772189 4.85229e-07 5.85065e-08)
(0.000771133 5.84934e-07 6.93103e-08)
(0.000770211 1.85088e-07 5.52612e-08)
(0.000769384 -5.72949e-08 8.7721e-08)
(0.0106535 0.0152386 -0.000853173)
(-0.00894662 0.0143672 0.00096262)
(0.00627362 0.00388384 0.00012491)
(0.0101578 0.0142476 3.20228e-05)
(-0.000545498 0.0015542 -0.00110582)
(0.00138451 0.00616491 -9.1433e-05)
(0.00017559 -0.000678242 6.62281e-06)
(0.000535568 0.000101019 3.45732e-06)
(0.000896107 0.000114181 -1.51432e-06)
(0.000819562 6.80994e-05 -4.72803e-07)
(0.000827455 4.38114e-05 1.35704e-07)
(0.000822906 2.72543e-05 2.82833e-08)
(0.00082122 1.71127e-05 4.9144e-08)
(0.00081951 1.04304e-05 5.18233e-08)
(0.000817994 6.63408e-06 5.31196e-08)
(0.00081641 4.17199e-06 9.46506e-08)
(0.000814973 2.54849e-06 1.05687e-07)
(0.000813511 1.48353e-06 1.02382e-07)
(0.000811958 9.34023e-07 1.64907e-08)
(0.000810394 7.03715e-07 7.3376e-08)
(0.00080881 3.69911e-07 4.76069e-08)
(0.000807293 7.15538e-08 6.8396e-08)
(0.000805994 -9.53336e-08 6.14343e-08)
(0.000804478 -1.69555e-07 5.14246e-08)
(0.000802953 -3.09596e-07 8.31558e-09)
(0.000801906 -4.05125e-07 -4.66122e-08)
(0.000800475 -2.23371e-07 1.44574e-07)
(0.000798869 -1.69331e-07 7.61056e-08)
(0.000797692 1.73466e-08 1.03892e-07)
(0.000796351 2.20326e-07 6.89042e-08)
(0.000794712 1.85465e-07 3.90811e-07)
(0.000793295 1.30505e-07 6.2338e-08)
(0.000791926 -2.88344e-08 4.26997e-08)
(0.000790474 -1.26008e-07 5.27074e-08)
(0.000789126 -1.31181e-07 1.8594e-07)
(0.000787801 -1.65762e-07 4.17558e-08)
(0.000786439 -2.0455e-07 6.20936e-08)
(0.000785324 -1.77023e-07 4.66013e-08)
(0.00078397 -4.20651e-07 7.91754e-08)
(0.000782211 -6.16781e-07 3.60537e-08)
(0.00078089 -2.91156e-07 4.91155e-08)
(0.000779555 -2.59022e-07 8.07815e-08)
(0.000778103 4.69271e-08 4.71822e-08)
(0.000776772 7.68789e-08 4.86333e-08)
(0.000775428 1.81734e-07 6.26116e-08)
(0.000774195 1.74031e-07 5.37575e-08)
(0.000772892 3.3946e-07 6.37177e-08)
(0.000771069 9.44504e-07 3.02461e-08)
(0.000769584 6.37402e-07 -3.74119e-08)
(0.00076884 3.55818e-07 9.2186e-08)
(0.00396403 -0.00352844 -0.000241963)
(0.00158916 -0.007143 1.07307e-05)
(-0.00254085 -0.00762079 0.000595602)
(0.00195046 -0.00294668 0.00162035)
(-0.00489381 0.00292932 -0.001015)
(0.0036212 0.00318799 5.10552e-05)
(0.00146969 0.00125865 0.000120924)
(0.00041423 9.71453e-05 3.35798e-07)
(0.000805236 9.66243e-05 -1.4043e-06)
(0.000775102 5.98165e-05 -3.49553e-07)
(0.000799741 3.67725e-05 1.94973e-07)
(0.000805787 2.24375e-05 3.17805e-08)
(0.000810246 1.38827e-05 5.77473e-08)
(0.000812699 8.99398e-06 -7.22455e-08)
(0.000814182 5.62718e-06 5.35106e-08)
(0.000814012 3.58612e-06 7.62832e-08)
(0.000813121 2.26997e-06 4.86187e-08)
(0.000812413 1.56134e-06 3.43941e-08)
(0.000811547 8.70018e-07 4.36923e-08)
(0.00081006 4.59677e-07 6.29606e-08)
(0.00080853 2.895e-07 3.55774e-08)
(0.000807169 1.78317e-07 5.9676e-08)
(0.000805827 1.45852e-07 5.79516e-08)
(0.000804407 3.0113e-08 4.86435e-08)
(0.000802986 3.6141e-08 -1.47464e-08)
(0.000801662 8.98097e-08 4.1657e-08)
(0.000800409 -2.06695e-07 7.47862e-08)
(0.000798833 1.96882e-08 4.80541e-08)
(0.000797663 2.37628e-07 1.00852e-07)
(0.000796624 -1.43168e-07 4.07348e-08)
(0.000794853 -2.43664e-07 7.96243e-08)
(0.000793128 -2.36851e-07 -3.8853e-08)
(0.000791686 -3.40583e-07 5.3197e-08)
(0.000790426 -3.6559e-07 2.96085e-08)
(0.000789201 -1.39144e-07 7.49994e-08)
(0.000787852 -1.37085e-07 6.75641e-08)
(0.000786529 -1.36637e-07 5.19491e-08)
(0.0007849 -1.83083e-07 4.67012e-08)
(0.000783388 -4.57553e-07 7.18814e-09)
(0.000782537 -5.46866e-07 6.61013e-08)
(0.00078126 -2.61476e-07 6.63676e-08)
(0.000779952 -1.98927e-07 1.40282e-08)
(0.000778435 1.86524e-08 6.51317e-08)
(0.000776766 7.15588e-08 1.08566e-07)
(0.000775477 4.95787e-08 4.29007e-08)
(0.000774121 1.11731e-07 4.31577e-08)
(0.000773148 1.83773e-08 1.62307e-08)
(0.000771499 3.47028e-08 2.50522e-08)
(0.000769461 4.11779e-07 -2.26498e-08)
(0.000768146 2.46633e-07 6.97723e-08)
(0.00117278 0.00170817 0.000276601)
(0.000514878 0.00579696 0.000926506)
(-0.00798684 -0.00306239 -0.0452953)
(-0.0240948 -0.0175827 -0.0176869)
(-0.0117348 0.00109595 -0.000427445)
(-0.000583462 0.00659332 -0.000723179)
(0.000811905 0.00179951 -7.96779e-05)
(0.00107675 0.000184288 -9.46232e-07)
(0.0012584 6.42338e-05 2.97233e-07)
(0.00124809 4.05949e-05 3.25083e-07)
(0.00130442 2.41854e-05 3.63656e-07)
(0.00132438 1.46527e-05 3.23991e-07)
(0.00133955 8.96814e-06 2.56132e-07)
(0.00134643 6.12996e-06 3.49931e-07)
(0.00134917 3.8038e-06 3.46339e-07)
(0.00135036 2.2457e-06 4.86023e-07)
(0.00135041 1.51708e-06 3.38902e-07)
(0.00134917 1.49289e-06 3.49477e-07)
(0.00134714 9.88019e-07 2.68484e-07)
(0.00134556 4.52976e-07 4.61542e-07)
(0.00134352 4.11077e-07 3.5011e-07)
(0.00134119 5.63919e-07 1.15314e-07)
(0.00133897 4.45839e-07 3.27588e-07)
(0.00133655 3.74671e-07 2.8888e-07)
(0.00133433 7.32101e-07 3.94519e-07)
(0.00133192 8.3084e-07 1.83167e-07)
(0.00132988 8.35413e-07 2.79882e-07)
(0.00132827 3.36421e-07 3.35984e-07)
(0.00132505 4.22749e-07 4.04074e-07)
(0.00132212 -4.13145e-07 4.86828e-07)
(0.00132018 -1.08668e-06 2.41988e-07)
(0.00131772 -9.24933e-07 2.40777e-07)
(0.0013154 -6.38188e-07 3.27684e-07)
(0.00131375 -1.54604e-07 3.2968e-07)
(0.00131155 1.43204e-07 3.21649e-07)
(0.00130884 5.26699e-08 3.16487e-07)
(0.00130639 4.11454e-08 3.0769e-07)
(0.00130388 1.76064e-07 2.92307e-07)
(0.00130165 6.67323e-07 1.24069e-07)
(0.00129993 6.97981e-07 3.47196e-07)
(0.0012979 1.09435e-07 2.85788e-07)
(0.00129548 -8.86231e-08 3.28828e-07)
(0.00129321 -8.27916e-07 2.97313e-07)
(0.00129046 -5.51314e-07 7.06236e-07)
(0.00128813 -4.00573e-07 3.58213e-07)
(0.00128595 -3.82117e-07 2.65418e-07)
(0.00128362 -5.33465e-07 2.91003e-07)
(0.00128158 -8.2651e-07 3.07617e-07)
(0.00127871 -5.89189e-07 2.39957e-07)
(0.00127567 -4.04362e-07 3.66662e-07)
(0.00244341 -0.00590379 -0.000598029)
(0.00716799 -0.00120424 3.91096e-05)
(0.00205403 -0.00194931 -0.000567269)
(0.00468597 -0.00278266 -0.00246543)
(0.0086441 -0.00325813 -0.00141145)
(0.00220348 -0.00279517 0.000217031)
(-7.7119e-05 0.000562127 0.000181722)
(0.000957851 -1.88064e-05 -9.56848e-08)
(0.00126554 -6.0883e-05 3.84617e-07)
(0.00124669 -3.21839e-05 3.11677e-07)
(0.00130259 -2.11315e-05 3.21558e-07)
(0.00132393 -1.23629e-05 3.28624e-07)
(0.00133825 -7.56208e-06 3.35378e-07)
(0.00134561 -5.0742e-06 3.35662e-07)
(0.0013491 -3.1376e-06 3.35222e-07)
(0.00135044 -2.12357e-06 2.75718e-07)
(0.00135066 -1.1385e-06 3.16795e-07)
(0.0013496 -1.01437e-06 3.83289e-07)
(0.00134741 -2.4274e-07 3.48801e-07)
(0.00134536 -7.9142e-08 2.96606e-07)
(0.00134358 8.59338e-08 3.8045e-07)
(0.00134129 1.99851e-07 3.74431e-07)
(0.0013388 5.37273e-07 2.97008e-07)
(0.00133699 5.33022e-07 3.07654e-07)
(0.00133478 6.99758e-07 2.49647e-07)
(0.00133213 3.37374e-07 4.00763e-07)
(0.00132936 4.44883e-07 3.00982e-07)
(0.00132685 -1.05224e-07 3.29975e-07)
(0.00132443 -1.16666e-06 3.00356e-07)
(0.00132169 -6.48625e-07 3.21595e-07)
(0.00131997 -6.38454e-07 3.61602e-07)
(0.00131826 -3.49519e-07 2.9215e-07)
(0.00131624 5.18188e-07 6.11806e-07)
(0.00131416 8.42232e-07 9.60795e-07)
(0.00131141 2.36082e-07 3.40657e-07)
(0.00130879 2.62842e-07 3.60854e-07)
(0.00130681 3.52444e-07 3.13553e-07)
(0.00130469 4.3704e-07 3.71974e-07)
(0.00130209 7.15374e-07 3.38216e-07)
(0.00129929 8.35028e-07 3.29101e-07)
(0.00129678 2.2285e-07 1.97253e-07)
(0.00129439 -1.32702e-07 3.68692e-07)
(0.00129246 -6.87047e-07 2.93607e-07)
(0.00129089 -7.32593e-07 5.17609e-07)
(0.00128844 -3.02311e-07 3.60614e-07)
(0.00128572 -2.41552e-07 3.23055e-07)
(0.00128365 1.3969e-07 2.88845e-07)
(0.00128147 -1.94359e-07 3.3075e-07)
(0.00127875 -5.77837e-07 3.79299e-07)
(0.00127707 -4.11961e-07 2.2501e-07)
(-0.00290383 -0.00176428 0.000214131)
(-0.00455342 0.00190147 0.000266691)
(-0.00065858 0.00650022 0.00102977)
(-0.00145716 -0.000696313 -0.00238324)
(0.00687146 -0.00125186 0.00912753)
(-0.00450023 0.00749286 0.000271749)
(0.00163722 -0.00109562 -4.18137e-06)
(0.00121903 -0.000252731 1.13008e-05)
(0.00135605 -0.000190118 -4.0463e-07)
(0.00129813 -6.68814e-05 3.20867e-07)
(0.00132926 -5.53831e-05 3.30762e-07)
(0.00134138 -3.17818e-05 3.34799e-07)
(0.00134868 -2.04456e-05 3.36638e-07)
(0.00135197 -1.27555e-05 3.36961e-07)
(0.00135287 -8.01087e-06 3.36052e-07)
(0.00135287 -5.02333e-06 3.13534e-07)
(0.0013518 -3.26544e-06 3.40867e-07)
(0.00135029 -2.50281e-06 2.91287e-07)
(0.00134831 -2.06491e-06 3.39948e-07)
(0.00134597 -1.05786e-06 3.63943e-07)
(0.00134386 -7.10559e-07 4.85654e-07)
(0.00134175 -4.3773e-07 3.28336e-07)
(0.00133938 -2.41187e-07 3.8401e-07)
(0.00133675 -3.15059e-08 -2.51051e-07)
(0.00133409 -5.02593e-07 3.0257e-07)
(0.0013316 -3.4738e-07 3.53635e-07)
(0.00132933 -4.38236e-07 3.48073e-07)
(0.00132626 -7.19767e-08 3.27051e-07)
(0.00132438 2.27787e-07 4.20467e-07)
(0.00132279 9.26969e-07 2.57165e-07)
(0.00132056 1.27844e-06 3.41839e-07)
(0.00131917 1.04016e-06 3.187e-07)
(0.00131689 6.67449e-07 8.00172e-07)
(0.00131339 4.46524e-07 4.2019e-07)
(0.00131082 6.16476e-08 -4.16609e-08)
(0.00130898 2.19043e-07 3.35225e-07)
(0.00130661 2.01121e-07 2.85901e-07)
(0.00130432 1.39944e-08 3.4299e-07)
(0.00130214 -1.50875e-08 3.34402e-07)
(0.00129931 -1.46446e-07 3.17736e-07)
(0.00129669 4.76771e-08 2.51465e-07)
(0.00129435 2.13543e-07 3.49734e-07)
(0.00129247 7.79727e-07 5.72168e-07)
(0.00129094 5.93884e-07 3.06648e-07)
(0.00128875 5.33867e-07 3.42758e-07)
(0.00128651 5.31449e-07 3.81592e-07)
(0.00128368 9.04795e-07 3.69337e-07)
(0.00128068 4.41981e-07 3.32594e-07)
(0.00127845 2.9356e-07 2.38771e-07)
(0.0012769 1.57332e-07 3.03435e-07)
(0.00750729 0.0188978 0.000721464)
(0.00432451 -0.00141185 -0.00171164)
(0.00593207 -0.00160763 -0.00200386)
(0.0039688 0.0106401 -0.0040631)
(-0.00269944 -0.000507385 -0.0160542)
(0.000946069 -0.00913594 -0.00241624)
(0.00191954 -0.00139372 -4.25188e-05)
(0.00109039 -0.000394208 4.35415e-05)
(0.00130574 -0.000210231 1.25197e-07)
(0.00144569 -9.54606e-05 6.93669e-07)
(0.0013469 -7.25977e-05 3.39092e-07)
(0.00136777 -4.13005e-05 3.40451e-07)
(0.00136214 -2.64986e-05 3.39101e-07)
(0.00136122 -1.62246e-05 3.38661e-07)
(0.00135881 -9.94364e-06 3.37335e-07)
(0.0013564 -6.05233e-06 3.38442e-07)
(0.00135382 -3.96469e-06 3.3793e-07)
(0.00135111 -2.40558e-06 3.13961e-07)
(0.00134923 -1.76169e-06 3.53314e-07)
(0.00134706 -1.27919e-06 2.97027e-07)
(0.00134436 -8.43387e-07 6.92531e-08)
(0.00134188 -6.69456e-07 3.33134e-07)
(0.00133931 -7.21926e-07 2.71207e-07)
(0.00133667 -5.24542e-07 3.95816e-07)
(0.00133438 -3.956e-07 6.84737e-07)
(0.00133221 2.56618e-09 3.03966e-07)
(0.00132971 2.25348e-07 3.95546e-07)
(0.00132769 5.15846e-07 4.10008e-07)
(0.00132567 1.5271e-06 3.52405e-07)
(0.001323 1.07114e-06 4.72483e-07)
(0.0013201 1.36352e-06 3.1554e-07)
(0.00131749 1.36013e-06 -6.78166e-08)
(0.00131549 4.12139e-07 3.2285e-07)
(0.0013134 -4.75764e-08 3.26456e-07)
(0.00131112 2.22548e-07 2.94036e-07)
(0.00130896 1.09831e-07 3.09542e-07)
(0.00130656 2.85079e-08 3.0573e-07)
(0.00130442 -5.53111e-08 3.41059e-07)
(0.00130189 -5.47597e-07 2.27743e-07)
(0.00129937 -5.13759e-07 2.05709e-07)
(0.00129723 -2.75524e-08 2.0454e-07)
(0.00129531 2.71473e-07 3.10649e-07)
(0.00129293 4.83831e-07 5.03549e-07)
(0.00129057 6.78183e-07 1.54096e-07)
(0.00128836 2.05231e-07 2.51457e-07)
(0.00128618 7.44585e-08 3.21338e-07)
(0.00128353 -1.80852e-07 4.06052e-07)
(0.0012807 1.22056e-07 2.89602e-07)
(0.00127839 3.97108e-07 3.12888e-07)
(0.00127651 3.97899e-07 2.34854e-07)
(-0.00520607 0.00294146 -0.00322303)
(-0.0142119 -0.00663473 -0.000593894)
(-8.52416e-05 -0.0120606 -0.00928582)
(0.0194075 0.0357281 -0.00250732)
(-0.0743058 -0.00585477 0.00333984)
(-0.0121343 -0.00323166 0.00157878)
(-0.000746605 -0.000725764 -5.94874e-05)
(0.00054243 -0.00238831 1.68098e-05)
(0.00159207 -0.000194336 1.28662e-07)
(0.00156392 -9.23267e-05 -2.16219e-08)
(0.00139747 -5.88178e-05 3.64061e-07)
(0.00139927 -3.5767e-05 3.57871e-07)
(0.00138018 -2.15177e-05 4.06082e-07)
(0.00137277 -1.3438e-05 3.42209e-07)
(0.00136565 -8.53471e-06 3.38741e-07)
(0.00136038 -5.38129e-06 3.46743e-07)
(0.00135638 -3.30708e-06 3.38614e-07)
(0.00135306 -2.00169e-06 3.33999e-07)
(0.00134973 -9.70462e-07 5.59512e-07)
(0.00134713 -6.4688e-07 2.32951e-07)
(0.00134463 -4.05134e-07 3.66706e-07)
(0.00134191 -2.18298e-07 3.36512e-07)
(0.00133957 -1.70342e-07 4.02977e-07)
(0.00133716 -6.18933e-08 3.80162e-07)
(0.00133475 1.74874e-07 3.35388e-07)
(0.00133238 4.64204e-08 3.56234e-07)
(0.00132997 2.16474e-07 3.84835e-07)
(0.00132788 3.16564e-07 3.24116e-07)
(0.00132506 1.78197e-07 5.30201e-07)
(0.00132257 2.79707e-07 5.25745e-07)
(0.00132091 1.8168e-07 -5.23644e-07)
(0.00131797 -4.4574e-08 2.87581e-07)
(0.00131512 3.50099e-07 3.19198e-07)
(0.00131315 1.74345e-07 3.31003e-07)
(0.00131102 2.53395e-07 3.1885e-07)
(0.00130874 2.30119e-08 3.26059e-07)
(0.0013064 -1.32259e-07 3.49608e-07)
(0.00130361 -1.85483e-07 2.88247e-07)
(0.00130157 -2.39855e-07 4.38417e-07)
(0.00129996 -5.88147e-08 2.94093e-07)
(0.00129767 9.37631e-08 2.84954e-07)
(0.00129498 1.96204e-07 9.57741e-07)
(0.00129297 2.04765e-07 2.93421e-07)
(0.00129059 1.08368e-07 3.05107e-07)
(0.00128799 -2.46369e-07 3.21884e-07)
(0.00128603 -4.08131e-07 3.20133e-07)
(0.00128374 -9.36886e-07 1.08974e-07)
(0.00128141 -7.55437e-07 6.69333e-09)
(0.00127878 -4.11228e-07 4.09243e-07)
(0.00127591 1.70069e-07 4.1957e-07)
(0.00426159 0.00340535 -0.00425455)
(0.0837046 -0.0225384 -0.0220229)
(-0.0137 -0.00142423 -0.0216119)
(0.00540498 -0.0102939 0.000481956)
(0.0173104 0.0218803 -0.0063191)
(0.0154209 0.0145767 0.00140228)
(0.00238743 -0.000870363 -5.14575e-06)
(0.000736157 -0.00056584 3.01604e-05)
(0.00161841 -5.39585e-05 1.68737e-06)
(0.001599 -1.7435e-05 3.08775e-07)
(0.00141879 -1.28662e-05 3.14248e-07)
(0.00141466 -1.06157e-05 3.19512e-07)
(0.00139021 -6.78619e-06 2.57722e-07)
(0.00137755 -4.75787e-06 3.41997e-07)
(0.00136894 -3.20558e-06 3.55234e-07)
(0.00136297 -2.2055e-06 4.20059e-07)
(0.00135807 -1.37922e-06 3.39366e-07)
(0.00135405 -8.96536e-07 3.42573e-07)
(0.00135093 -6.74962e-07 2.87525e-07)
(0.00134778 -6.20672e-08 5.25614e-07)
(0.0013449 -5.4028e-08 3.54428e-07)
(0.00134217 1.11092e-07 3.35707e-07)