/*--------------------------------*- C++ -*----------------------------------*\
| =========                 |                                                 |
| \\      /  F ield         | OpenFOAM: The Open Source CFD Toolbox           |
|  \\    /   O peration     | Version:  5.0                                   |
|   \\  /    A nd           | Web:      www.OpenFOAM.org                      |
|    \\/     M anipulation  |                                                 |
\*---------------------------------------------------------------------------*/
FoamFile
{
    version     2.0;
    format      ascii;
    class       surfaceVectorField;
    location    "5";
    object      Uf;
}
// * * * * * * * * * * * * * * * * * * * * * * * * * * * * * * * * * * * * * //

dimensions      [0 1 -1 0 0 0 0];

internalField   nonuniform List<vector> 
28933
(
(-0.00110617 0.0034651 -0.000168757)
(0.00191904 -0.000998707 -6.82535e-05)
(0.00103475 0.000955548 0.000126742)
(0.00131832 0.00143807 0.000219267)
(0.000446363 0.00641987 -0.000181585)
(-0.000843008 0.00533681 -0.00261685)
(0.00145882 0.000994936 -0.000531492)
(-0.00372466 0.00150045 0.000178023)
(-0.00328262 0.001447 0.000376899)
(-4.00039e-05 0.00396395 -0.00165734)
(-0.00104124 0.00510512 -0.000537733)
(-0.000686661 0.00458431 0.00277453)
(0.00542005 -0.00215562 -5.49578e-05)
(-0.00155918 -0.000668301 7.36523e-05)
(0.00859263 -0.0084045 0.00355982)
(0.0126731 -0.00490323 0.0069651)
(0.0033215 -0.0115635 -0.00790826)
(-0.0184699 -0.0106048 -0.0045962)
(-0.0143588 -0.00553602 -0.000548276)
(0.00690689 -0.0132268 0.000134539)
(0.00274896 -0.022206 -0.000307069)
(-0.00908728 -0.0398346 -0.00595527)
(-0.00201846 0.000980493 -8.94726e-05)
(-0.00646613 0.00688412 0.000467247)
(-0.00435987 0.00575327 -0.000172134)
(-0.00406872 0.0101643 0.000237828)
(-0.00372904 -0.000140284 -1.04132e-05)
(-0.000787501 0.00213833 -4.28615e-05)
(-0.00207912 0.00073937 -6.93895e-05)
(-0.00187213 0.00347391 -0.000102093)
(0.000365923 0.000752058 2.45188e-05)
(0.00118143 0.000584817 3.80597e-05)
(0.00115568 0.000719913 -6.93763e-05)
(0.000932903 0.000224436 2.42726e-05)
(0.000288359 3.77433e-05 -1.83018e-06)
(0.000417604 3.7352e-05 -2.65095e-06)
(0.000415295 3.39341e-05 2.58083e-07)
(0.000686938 8.66768e-05 -1.71606e-07)
(0.000278327 2.95258e-05 -1.76836e-06)
(0.000528515 7.67842e-05 6.63951e-08)
(0.000503559 5.45448e-05 1.14805e-07)
(0.000783091 2.46208e-05 -8.46955e-07)
(0.000817889 8.49922e-06 -1.32464e-06)
(0.00108025 4.05186e-05 -1.10804e-06)
(0.000559201 2.63595e-05 -4.03153e-06)
(0.000557307 1.46623e-05 -4.58154e-06)
(0.000928175 5.22903e-05 -4.91154e-06)
(0.000915717 2.3242e-05 -5.87095e-06)
(0.000798245 1.59752e-05 -5.61903e-08)
(0.000782979 8.39287e-06 -3.02327e-07)
(0.00104248 2.68697e-05 1.15253e-07)
(0.000805362 9.99309e-06 1.20846e-07)
(0.000802953 5.52777e-06 1.64458e-07)
(0.00107044 1.67093e-05 1.96574e-07)
(0.000809456 6.2889e-06 2.66139e-08)
(0.000806608 3.9807e-06 5.09425e-08)
(0.00107534 1.04687e-05 1.73358e-07)
(0.000811526 4.19757e-06 3.78907e-08)
(0.000810044 2.72978e-06 3.3491e-08)
(0.00108043 6.57999e-06 1.81808e-07)
(0.000811094 2.85867e-06 6.06563e-08)
(0.000810919 1.21774e-06 6.13482e-08)
(0.00108146 4.74908e-06 1.6692e-07)
(0.000810447 1.73455e-06 5.49651e-08)
(0.000810624 1.04635e-06 4.99854e-08)
(0.00108066 2.93863e-06 1.86886e-07)
(0.000809926 9.9372e-07 5.65994e-08)
(0.000810051 3.04942e-07 5.17576e-08)
(0.00108002 1.73167e-06 1.95365e-07)
(0.000808592 5.70261e-07 5.13017e-08)
(0.000809118 6.67675e-07 2.48197e-08)
(0.00107885 9.65416e-07 1.80028e-07)
(0.000807264 3.38065e-07 5.50576e-08)
(0.000807979 1.51676e-07 6.52018e-08)
(0.00107711 6.30343e-07 1.8701e-07)
(0.000805672 3.26319e-08 8.57828e-08)
(0.000806477 -2.10442e-07 5.86424e-08)
(0.00107506 3.55799e-07 1.51695e-07)
(0.000804783 -1.07426e-07 7.85633e-08)
(0.000805109 2.48518e-07 6.98947e-08)
(0.00107352 -1.82005e-07 2.47842e-07)
(0.000803113 4.75751e-08 3.9188e-08)
(0.00080387 4.39245e-09 6.7916e-08)
(0.00107188 -8.24168e-09 1.70162e-07)
(0.000801435 1.30139e-07 2.63573e-08)
(0.00080229 1.02702e-07 4.71211e-08)
(0.00106954 2.40487e-07 1.77559e-07)
(0.000799918 1.09235e-07 3.58662e-08)
(0.000800645 3.4003e-07 6.14448e-08)
(0.00106744 2.19291e-07 1.50179e-07)
(0.000798404 1.98496e-07 1.56019e-08)
(0.000799203 -1.67508e-07 5.27466e-08)
(0.00106546 1.64501e-07 1.93206e-07)
(0.000796786 3.97928e-07 1.00865e-08)
(0.000797753 2.32425e-07 -3.44119e-08)
(0.00106341 4.50193e-07 1.38926e-07)
(0.000795267 4.47518e-07 5.11614e-08)
(0.000796008 -1.2468e-06 3.70159e-08)
(0.00106128 6.9997e-07 1.48678e-07)
(0.000793779 2.97674e-07 5.61787e-08)
(0.000794395 1.88959e-07 6.36195e-08)
(0.00105929 5.65724e-07 1.84031e-07)
(0.000792321 2.45164e-07 5.8142e-08)
(0.000793073 6.41977e-08 4.85756e-08)
(0.00105755 2.60865e-07 1.75681e-07)
(0.000790664 8.63335e-08 5.07774e-08)
(0.000791347 -1.79684e-07 7.22219e-08)
(0.00105528 3.83334e-07 2.18341e-07)
(0.000789276 -2.66889e-07 5.73869e-08)
(0.00078965 1.48021e-07 3.74862e-08)
(0.00105318 -2.07442e-07 1.88096e-07)
(0.000787342 -4.43467e-07 7.37446e-08)
(0.00078825 -7.48761e-07 -3.23704e-08)
(0.00105112 -6.12539e-07 3.6762e-07)
(0.000785877 -4.53549e-07 7.7299e-08)
(0.000786667 -6.81062e-07 4.38842e-08)
(0.00104873 -6.59358e-07 1.94486e-07)
(0.000784518 -3.10919e-07 4.60825e-08)
(0.000785354 -9.14065e-08 1.01703e-07)
(0.00104686 -5.60029e-07 2.09622e-07)
(0.000783354 -1.15055e-07 2.54025e-08)
(0.000784154 1.5285e-07 8.49012e-08)
(0.00104537 -2.32616e-07 1.08953e-07)
(0.000781729 -2.82357e-08 4.74314e-08)
(0.000782585 2.04323e-08 4.70939e-08)
(0.0010435 -2.05058e-08 1.74625e-07)
(0.000780157 1.8561e-08 4.18664e-08)
(0.00078099 8.7275e-08 4.07577e-08)
(0.00104129 4.8432e-09 1.7804e-07)
(0.000778426 1.22044e-07 2.23865e-08)
(0.000779525 3.48159e-07 3.94239e-08)
(0.0010391 8.05976e-08 1.73884e-07)
(0.000776894 3.54195e-07 4.3039e-08)
(0.000778028 4.15505e-07 9.19249e-09)
(0.0010368 2.57214e-07 1.43401e-07)
(0.000776441 3.34118e-07 8.73437e-08)
(0.000776591 -2.09548e-06 4.87173e-08)
(0.00103556 7.02644e-07 2.07123e-07)
(0.000774575 8.57913e-08 6.36686e-08)
(0.000775151 3.15374e-07 6.50212e-08)
(0.00103413 2.41356e-07 1.7759e-07)
(0.000773038 -5.71152e-09 4.79881e-08)
(0.000773641 8.12769e-08 4.80747e-08)
(0.00103178 4.56774e-08 1.73673e-07)
(0.000771646 -1.671e-07 1.07652e-07)
(0.00077216 3.51227e-08 7.11183e-08)
(0.00102975 -4.39913e-08 1.47398e-07)
(0.000770761 -3.19034e-07 7.7402e-08)
(0.000770913 -1.47075e-07 9.21147e-08)
(0.00102844 -4.13849e-07 3.3972e-07)
(0.00076845 -2.38138e-07 2.7509e-08)
(0.000769568 2.27884e-06 2.83768e-08)
(0.00102616 -4.35801e-07 8.93616e-08)
(0.000767111 -7.19714e-08 3.76193e-08)
(0.000768071 -2.16835e-07 5.02527e-08)
(0.00102371 -1.98999e-07 1.85338e-07)
(0.000765799 2.3332e-08 3.73381e-08)
(0.000766627 3.49886e-07 4.81039e-08)
(0.00102203 -5.04066e-08 1.14837e-07)
(0.000764765 -2.58331e-08 4.43262e-08)
(0.000765229 -2.55032e-07 4.62745e-08)
(0.00102035 2.82886e-08 1.63975e-07)
(0.000763208 -2.14163e-07 4.17035e-08)
(0.000763885 1.48977e-07 4.56532e-08)
(0.00101878 -1.8011e-07 1.76549e-07)
(0.000761537 -3.22292e-07 2.11389e-08)
(0.000762333 -1.9219e-07 -1.39345e-08)
(0.0010165 -4.3656e-07 1.98728e-07)
(0.000760998 8.7953e-07 5.45591e-08)
(0.00101433 -4.20299e-07 1.1168e-07)
(0.0038596 0.00111835 -8.10445e-05)
(0.000164374 0.000830118 5.27158e-05)
(0.00260912 -0.00501908 -0.00037445)
(0.00408857 0.00325372 4.01347e-05)
(-6.95678e-05 0.00560298 2.25078e-05)
(0.00585741 0.00198972 3.58299e-05)
(0.000833312 -0.00780157 -7.32192e-05)
(-0.000408345 0.00592636 0.000423307)
(0.00346919 0.000127319 0.000557868)
(0.00473132 0.00014004 -0.000383706)
(0.00178167 -0.00190149 0.000899644)
(0.00168264 0.000120473 0.000524885)
(0.00224861 0.00071152 -0.00127759)
(-0.00119871 -0.00801738 -0.00309839)
(0.000734655 0.000376736 -0.000740937)
(0.00186138 -0.00198609 0.00188653)
(0.00385065 -0.00746757 0.000199454)
(0.00459947 -0.00533792 -3.25472e-05)
(0.00397696 -0.00655046 0.000512919)
(0.00412897 -0.0100226 0.0011388)
(0.00580865 -0.00962176 0.000189849)
(0.00342419 -0.00890391 5.2077e-05)
(0.00356788 -0.0103759 -0.000492126)
(-0.00686722 -0.00661295 0.000542277)
(-0.0019666 -0.00266588 -0.000211421)
(-0.00330868 -0.00262647 -0.00011723)
(0.0031096 -0.00416595 -0.000165208)
(-0.000746892 -0.00631061 0.000251251)
(0.000569705 0.000901818 -3.85908e-05)
(0.00321573 -0.000473214 -4.5163e-05)
(0.00157468 -0.00104014 9.22294e-05)
(0.00335819 -0.00207811 5.45086e-05)
(0.00336516 -0.00183673 0.000338854)
(0.000373133 -4.59423e-05 3.25478e-05)
(0.000893505 -4.47282e-06 8.72026e-05)
(0.000906995 -7.44225e-05 0.000103057)
(0.000398084 0.000111781 -1.68705e-05)
(0.000629298 2.96798e-05 4.85335e-05)
(0.000282555 1.23242e-05 -1.1952e-06)
(0.000440653 8.03315e-06 -2.87897e-06)
(0.000407553 -1.30818e-06 2.34878e-07)
(0.000652689 1.49842e-05 -8.14165e-07)
(0.000303585 5.29705e-06 -5.56242e-07)
(0.000517195 3.01127e-05 3.12918e-06)
(0.000566613 1.16525e-05 4.17447e-06)
(0.000405945 1.53452e-05 -3.37749e-07)
(0.000783991 -6.74242e-06 -7.80348e-07)
(0.000832931 -3.44902e-05 -1.71858e-06)
(0.00109138 -1.69212e-05 -9.92241e-07)
(0.000558667 6.72705e-07 -3.28698e-06)
(0.000560716 -7.11008e-06 -4.60327e-06)
(0.000913672 6.04984e-06 -4.03771e-06)
(0.000915987 -1.61069e-05 -5.98519e-06)
(0.000795227 -1.59563e-06 -8.18319e-08)
(0.000789562 -6.45796e-06 -3.72056e-07)
(0.00103959 -3.5846e-06 9.47616e-08)
(0.000803377 -6.64743e-07 9.4591e-08)
(0.000804136 -6.93061e-06 1.48187e-07)
(0.00106687 -2.39848e-06 1.97348e-07)
(0.000807638 3.24717e-08 5.78253e-08)
(0.00080749 -3.37498e-06 8.20659e-08)
(0.00107308 -4.95382e-07 1.80511e-07)
(0.00080987 6.79441e-10 5.69394e-08)
(0.00081001 -2.16566e-06 1.15386e-07)
(0.00107801 -1.28894e-07 1.86371e-07)
(0.000810364 -5.05228e-08 5.0681e-08)
(0.000810859 -1.47454e-06 5.28177e-08)
(0.00107985 -3.19834e-07 1.84469e-07)
(0.000810304 4.31108e-08 4.67773e-08)
(0.000810744 -8.87059e-07 5.2256e-08)
(0.0010802 -1.1231e-07 1.80076e-07)
(0.000809294 7.32802e-08 1.99865e-08)
(0.00081009 -3.90823e-07 4.92975e-08)
(0.00107953 1.07523e-08 1.76882e-07)
(0.000808459 4.59317e-08 3.87068e-08)
(0.000809086 -4.57159e-07 2.41304e-08)
(0.00107838 3.22412e-08 1.91546e-07)
(0.000807347 1.42246e-07 6.87887e-08)
(0.0008081 -9.41591e-07 9.04959e-08)
(0.00107715 -2.11332e-08 2.13417e-07)
(0.000805729 2.84001e-07 4.27507e-08)
(0.000806655 -7.97766e-07 -2.29602e-08)
(0.00107521 2.99481e-07 2.22453e-07)
(0.000804293 2.947e-07 5.9248e-08)
(0.000805122 1.00335e-08 3.28589e-08)
(0.00107316 3.81441e-07 1.82755e-07)
(0.000803079 1.79269e-07 7.58558e-08)
(0.000803725 -4.38913e-07 6.97388e-08)
(0.00107152 3.5648e-07 1.78043e-07)
(0.000801506 1.46203e-07 8.2204e-08)
(0.000802247 8.14826e-08 5.44617e-08)
(0.00106966 1.12983e-07 1.80194e-07)
(0.000799854 2.15737e-07 7.8328e-08)
(0.000800731 -6.00987e-07 1.07307e-07)
(0.00106739 3.2118e-07 2.51422e-07)
(0.000798597 2.07401e-07 2.76051e-09)
(0.000799191 4.36174e-07 7.02523e-08)
(0.00106558 3.31356e-07 1.09561e-07)
(0.000797043 1.01338e-07 -7.50511e-09)
(0.000797619 4.81836e-08 -8.28129e-09)
(0.00106379 3.15434e-07 1.90967e-07)
(0.000795018 -3.47713e-09 4.94656e-08)
(0.000795876 -6.27367e-08 3.7642e-08)
(0.00106129 5.10741e-08 1.366e-07)
(0.000793679 -7.3151e-08 5.60211e-08)
(0.000794308 -1.15989e-07 4.64971e-08)
(0.00105899 3.24327e-08 1.80983e-07)
(0.00079224 -2.9042e-07 6.2648e-08)
(0.000792802 7.33429e-09 5.1861e-08)
(0.00105725 -1.72553e-07 1.72585e-07)
(0.000790164 -3.77357e-07 5.89417e-08)
(0.00079124 -6.05441e-07 -3.15557e-08)
(0.0010549 -6.56785e-07 2.54829e-07)
(0.000788751 -2.92461e-07 -5.22491e-08)
(0.000789758 -1.18323e-07 3.09183e-08)
(0.00105244 -4.32234e-07 1.85487e-07)
(0.000787489 -2.06756e-07 -6.22548e-08)
(0.000788359 2.83799e-07 1.33047e-08)
(0.00105087 -3.87864e-07 8.05986e-08)
(0.000786053 1.27481e-07 6.82699e-08)
(0.000787085 4.32971e-07 3.43496e-08)
(0.00104909 -1.99973e-07 9.04e-08)
(0.000785077 4.06339e-07 1.40527e-07)
(0.000785702 -2.00984e-06 6.07067e-08)
(0.00104745 5.38466e-07 2.65077e-07)
(0.000783426 2.89044e-07 1.06604e-07)
(0.000784006 -2.24173e-06 8.18512e-08)
(0.00104579 5.95103e-07 3.59462e-07)
(0.000781761 1.57418e-07 4.04222e-08)
(0.000782419 2.51075e-07 8.08008e-08)
(0.00104349 2.2233e-07 1.7442e-07)
(0.000780409 1.70294e-07 3.83156e-08)
(0.000781006 3.1705e-08 4.29903e-08)
(0.00104141 2.14197e-07 1.67129e-07)
(0.000779103 2.79028e-07 2.62392e-08)
(0.00077966 1.48892e-07 1.05581e-07)
(0.00103968 2.57786e-07 1.73646e-07)
(0.000777697 5.0452e-07 1.48586e-08)
(0.000778307 9.17651e-08 2.95596e-08)
(0.00103799 5.03925e-07 1.91873e-07)
(0.000775348 4.72178e-07 2.63898e-08)
(0.000776548 -6.41704e-07 2.50778e-08)
(0.0010354 8.46779e-07 1.49154e-07)
(0.000774192 1.80874e-07 4.94325e-08)
(0.000774785 2.27316e-07 4.70117e-08)
(0.00103299 4.52368e-07 1.53034e-07)
(0.000772755 -7.82492e-09 7.11979e-08)
(0.000773404 -2.04577e-07 5.91493e-08)
(0.00103133 7.78076e-08 1.92759e-07)
(0.000771366 -1.29952e-07 5.5575e-08)
(0.000772007 -1.89349e-07 2.97099e-08)
(0.00102939 -9.40214e-08 1.84303e-07)
(0.000769787 -3.53923e-07 4.31092e-08)
(0.000770634 8.73077e-09 5.65976e-08)
(0.0010274 -2.81233e-07 1.74263e-07)
(0.000769184 -3.1349e-07 5.11138e-08)
(0.00076962 1.72887e-07 7.35843e-08)
(0.0010261 -6.90404e-07 2.50012e-07)
(0.000767577 -6.50424e-08 6.0738e-08)
(0.000768383 -9.2869e-08 6.79658e-08)
(0.00102456 -1.70108e-07 1.79546e-07)
(0.000766037 7.72951e-08 5.70409e-08)
(0.000766806 -7.70633e-08 6.05501e-08)
(0.0010224 -6.7918e-08 2.13777e-07)
(0.000764361 8.41597e-08 4.76017e-08)
(0.000765238 -6.88409e-08 4.74308e-08)
(0.00102034 2.14034e-07 1.8168e-07)
(0.000763043 -8.40175e-08 -9.96666e-09)
(0.000763675 1.22432e-07 5.32584e-08)
(0.00101832 -1.8605e-08 1.64634e-07)
(0.000761667 -1.78462e-07 1.9465e-08)
(0.000762218 6.15762e-07 -5.99195e-09)
(0.00101643 -2.45755e-07 1.09072e-07)
(0.000761219 -1.67791e-07 1.15072e-07)
(0.00101499 -2.6663e-07 2.29215e-07)
(-0.00329404 0.00589679 0.000156278)
(-0.00072257 0.00123598 0.000217768)
(-0.00240487 0.000460406 0.000317028)
(-0.00155355 0.00655823 0.000405547)
(-0.0026088 0.000689858 0.000422555)
(-0.00316401 0.00402234 0.000182922)
(-0.0140476 -0.00832538 -0.000190822)
(-0.00460469 -0.00315195 0.000306165)
(-0.00341114 0.00628285 -0.00132009)
(-0.0105461 -0.00318869 -7.06777e-05)
(-0.0185866 -0.00650464 -0.000797555)
(-0.0113946 0.00486418 -0.00147569)
(-0.0106009 0.00956186 0.00530192)
(-0.000106386 0.00664826 -0.00159875)
(-0.0051986 0.01338 0.00409478)
(-0.00254368 -0.017518 -0.000561823)
(-0.0103764 -0.0120908 -0.000577135)
(-0.0109875 -0.0141541 -0.00128096)
(-0.00198356 -0.0168004 -0.000205318)
(0.00419178 0.00420633 0.000146625)
(0.00643404 0.00844548 0.000459823)
(0.00683288 0.0145852 -0.000177631)
(0.00608974 -0.00138265 1.70815e-05)
(-0.000524598 0.00751585 0.00507259)
(0.0196286 0.000307119 0.00120241)
(0.0280176 0.00213449 0.00484964)
(0.000765106 0.0157257 0.00172707)
(-0.0021262 0.00239179 -5.86381e-05)
(-0.00635456 0.00151245 7.81836e-05)
(-0.00249993 0.000863217 -9.96661e-05)
(-0.0041621 0.00141081 -0.000147077)
(-0.00630775 0.0037813 -0.00025849)
(0.000680497 -0.000350099 1.96588e-05)
(0.000665098 -0.000191797 2.98941e-05)
(0.000497314 -0.000695624 1.24728e-05)
(0.00109056 -0.000785653 1.99619e-05)
(0.000847284 -0.000799005 4.87407e-05)
(0.000323854 -9.41809e-05 1.86873e-05)
(0.000332101 -2.01104e-05 2.69957e-06)
(0.000299335 -2.85173e-05 3.85862e-06)
(0.000493256 -5.25459e-05 7.88315e-06)
(0.000237417 -2.67281e-05 2.31995e-07)
(0.000806212 -3.22646e-05 -1.31073e-06)
(0.000567609 -3.74078e-05 -1.49967e-06)
(0.00112184 -8.48355e-05 -1.19868e-06)
(0.000580801 -3.3214e-05 -4.06803e-06)
(0.000576782 -3.64763e-05 -4.87727e-06)
(0.000965327 -5.76744e-05 -4.83973e-06)
(0.000952791 -6.58186e-05 -4.89452e-06)
(0.000560934 -5.19929e-05 -4.16332e-06)
(0.000948801 -6.7543e-05 -1.08099e-06)
(0.000932998 -9.3483e-05 -5.08047e-06)
(0.000803223 -7.4275e-06 -1.42208e-07)
(0.000827361 -3.01721e-06 -6.83689e-07)
(0.00106105 -7.42075e-06 6.20453e-08)
(0.00080793 -8.51593e-06 1.35683e-07)
(0.000802895 -1.48425e-05 -1.21046e-07)
(0.00107435 -1.65911e-05 1.81553e-07)
(0.000810111 -4.91905e-06 1.39616e-07)
(0.000812036 -8.1673e-06 1.42889e-07)
(0.00107821 -8.59583e-06 1.83534e-07)
(0.000811257 -3.3769e-06 1.11285e-07)
(0.000811968 -5.6125e-06 1.07836e-07)
(0.00108066 -6.03538e-06 1.80409e-07)
(0.000811254 -2.17069e-06 5.43929e-08)
(0.000812386 -3.50567e-06 5.98672e-08)
(0.00108149 -3.88944e-06 1.81887e-07)
(0.000810694 -1.40887e-06 5.47771e-08)
(0.000811709 -2.21092e-06 5.32041e-08)
(0.00108108 -2.46492e-06 1.81231e-07)
(0.000809822 -8.98061e-07 5.34496e-08)
(0.000810737 -1.39952e-06 5.34074e-08)
(0.00108021 -1.64139e-06 1.8686e-07)
(0.000808681 -5.52501e-07 7.58981e-08)
(0.000809523 -9.48264e-07 5.02287e-08)
(0.00107881 -9.81175e-07 1.74564e-07)
(0.000807658 -5.19875e-07 -1.21659e-09)
(0.000808145 -2.56027e-06 4.56509e-08)
(0.00107744 -6.83165e-07 2.42209e-07)
(0.000805836 -4.26629e-07 -3.28699e-08)
(0.000806774 1.74725e-07 -3.02894e-08)
(0.00107557 -8.65737e-07 1.32387e-07)
(0.000804689 -2.0573e-07 4.33379e-08)
(0.0008054 -4.81789e-07 3.60107e-08)
(0.00107359 -3.82204e-07 1.75496e-07)
(0.000802771 -1.13084e-07 4.83496e-08)
(0.000803842 3.11456e-07 5.25059e-08)
(0.00107155 -2.42194e-07 1.56351e-07)
(0.000801586 -8.00709e-08 7.95473e-08)
(0.00080229 -3.47821e-07 4.88974e-08)
(0.00106949 -1.17082e-07 1.7507e-07)
(0.000799997 -5.39485e-08 9.92426e-08)
(0.000800764 -4.74513e-07 4.81592e-08)
(0.00106771 -1.27633e-07 1.71665e-07)
(0.000798266 -1.35576e-07 5.92355e-08)
(0.00079909 -3.41675e-07 7.10173e-08)
(0.00106545 -9.04808e-09 2.47371e-07)
(0.000796459 -2.44637e-07 3.68512e-08)
(0.000797483 7.66683e-07 2.59977e-08)
(0.00106306 -3.51015e-07 1.49785e-07)
(0.000795052 -1.87935e-07 3.46707e-08)
(0.000795948 -3.2474e-07 3.62739e-08)
(0.00106092 -3.05608e-07 1.83761e-07)
(0.00079349 -1.06118e-07 4.23353e-08)
(0.00079441 4.89751e-08 4.53546e-08)
(0.00105901 -1.83081e-07 1.67487e-07)
(0.000791881 -1.24826e-07 -4.23164e-08)
(0.000792779 -5.62992e-08 5.95313e-08)
(0.00105669 -7.16657e-08 1.87869e-07)
(0.000790682 1.1059e-07 -5.95988e-08)
(0.000791533 2.93943e-07 -7.65514e-08)
(0.00105496 -1.91857e-07 8.41694e-08)
(0.000789468 4.55433e-07 9.64776e-08)
(0.000790187 6.98242e-07 3.48444e-08)
(0.00105352 5.74995e-07 9.14741e-08)
(0.000787832 5.47753e-07 1.09902e-07)
(0.000788471 4.12612e-07 1.28471e-07)
(0.00105141 7.4589e-07 1.77636e-07)
(0.000786829 5.42467e-07 2.67782e-08)
(0.000787075 6.84423e-07 6.03001e-08)
(0.00104989 8.0306e-07 1.13287e-07)
(0.000784642 3.982e-07 2.0246e-09)
(0.000785519 7.98474e-08 2.45608e-08)
(0.00104785 6.61168e-07 8.7989e-08)
(0.000782937 2.09204e-07 5.60479e-08)
(0.000783769 1.82932e-07 2.57606e-08)
(0.00104497 3.97227e-07 2.14804e-08)
(0.000781649 1.41655e-07 8.33807e-08)
(0.000782333 -1.93216e-08 6.7517e-08)
(0.00104302 1.50201e-07 1.76437e-07)
(0.00078023 1.15874e-07 1.10237e-07)
(0.000780973 -8.87635e-08 5.63115e-08)
(0.00104133 1.97361e-07 1.77752e-07)
(0.000778903 2.58308e-08 1.08925e-07)
(0.000779547 9.72605e-09 1.59903e-07)
(0.00103946 1.0491e-07 1.71212e-07)
(0.000777341 -1.03942e-07 3.97802e-08)
(0.000778145 3.74266e-08 4.74312e-08)
(0.00103753 -1.87939e-08 1.86573e-07)
(0.000775735 -7.48933e-08 4.56929e-08)
(0.000776585 -2.0211e-07 2.48236e-08)
(0.00103549 -2.32129e-07 1.55224e-07)
(0.000774042 3.42125e-08 5.67248e-08)
(0.000774921 8.1035e-07 2.86298e-08)
(0.00103317 3.81557e-08 1.53033e-07)
(0.000772664 6.11148e-08 1.76704e-08)
(0.000773438 3.91246e-08 4.56863e-08)
(0.00103109 3.64034e-08 1.49398e-07)
(0.000771316 2.29522e-07 3.07242e-08)
(0.000772217 3.55208e-07 1.92525e-08)
(0.00102931 1.37087e-07 1.25051e-07)
(0.00077021 3.87913e-07 8.70676e-08)
(0.00077083 -1.17738e-06 9.82455e-08)
(0.0010277 5.23277e-07 2.28594e-07)
(0.000769127 3.06604e-07 9.0438e-08)
(0.000769516 4.53408e-07 3.00431e-08)
(0.0010263 5.6776e-07 1.2054e-07)
(0.000767562 1.732e-07 6.77802e-08)
(0.000768215 -6.37054e-08 5.90476e-08)
(0.0010245 3.33116e-07 1.82571e-07)
(0.000766012 1.49037e-07 5.0944e-08)
(0.000766774 -6.47219e-08 4.81488e-08)
(0.00102251 2.41741e-07 1.82684e-07)
(0.000764475 2.45662e-07 5.30857e-08)
(0.000765357 1.88416e-07 6.49768e-08)
(0.00102041 2.59254e-07 1.63873e-07)
(0.000762901 2.39049e-07 5.72511e-08)
(0.000763666 3.60244e-07 -2.0656e-08)
(0.00101821 4.4284e-07 1.68672e-07)
(0.000761543 1.28749e-07 8.95779e-08)
(0.000762078 1.97601e-07 5.29424e-08)
(0.0010162 1.9556e-07 1.97124e-07)
(0.000761058 -1.09632e-06 1.41244e-07)
(0.00101497 1.5099e-07 2.03072e-07)
(0.000957359 -0.000524238 0.000483977)
(0.0194509 -0.00434323 -0.00119399)
(0.00538801 0.0129099 0.0025347)
(0.0111774 0.00485317 0.00238467)
(0.017722 -0.00360994 -0.00388849)
(0.0153151 0.012099 0.00700629)
(0.00614332 0.0155162 0.00512612)
(0.00812906 0.0138411 0.00255052)
(0.00664163 0.0162622 -0.0105048)
(-0.00371839 -0.0069474 0.000323212)
(-0.0120405 -0.0132018 0.000344716)
(0.00426347 -0.00160329 -0.00101194)
(-0.00696767 -0.00659963 0.000345062)
(-0.0200441 -0.0109117 0.00206128)
(-0.00163815 -0.0197769 0.000125951)
(0.00226769 -0.0145567 -0.00163241)
(-0.00803065 -0.0130661 -0.00164121)
(0.00318843 -0.00449245 0.00941705)
(-0.00126894 0.0015053 -0.00076442)
(0.000321935 -0.00477978 -0.000477451)
(0.0036031 -0.00566412 -0.000286085)
(-0.00519471 0.00455283 0.000417248)
(0.000555323 0.00163706 -0.00166311)
(-0.00343548 0.00074676 -0.000119105)
(0.0135776 0.0087968 -0.000844182)
(-0.00104096 -0.0114901 -0.00050226)
(0.00389607 0.0118946 -2.32209e-05)
(-0.0100773 -0.01185 -0.00401083)
(0.016211 -0.00426641 0.00351719)
(-0.00467731 -0.00134364 -0.000808804)
(-0.000182715 -0.00316069 -0.000779646)
(0.0111039 0.00703142 0.000967759)
(-0.000636107 0.0121362 -0.000185837)
(0.01257 0.00719253 -0.00206277)
(-0.00065636 -0.011984 -0.00100425)
(-0.0378908 0.00369178 -0.000122229)
(-0.00597775 -0.00638434 -0.000959114)
(-0.022781 0.00971364 -0.00166129)
(-0.0235213 0.00381794 -0.00413922)
(-0.0139731 0.00323998 -0.000561307)
(-0.0208425 0.00338972 0.000855167)
(-0.00499332 0.00402557 -0.000470273)
(-0.0104328 0.0085282 0.000403844)
(-0.0148128 0.00831204 -0.00169029)
(-9.38933e-05 2.67518e-05 -1.74679e-05)
(0.00146356 -0.000685102 2.76074e-05)
(0.00075469 -0.000477986 -3.05332e-05)
(0.00131961 -0.000682777 -1.07971e-05)
(0.000494806 -0.000382265 2.01869e-05)
(-8.89031e-05 0.000154766 -3.98955e-05)
(0.000600558 -0.000580891 3.99069e-05)
(8.90565e-05 -1.27913e-05 -1.41345e-05)
(0.000269099 -0.000244748 -5.48871e-06)
(0.000197429 3.95636e-06 -3.3285e-05)
(0.000210349 -0.000445301 4.9587e-08)
(0.00112481 -0.00012849 6.22971e-05)
(0.000456522 -0.000201313 3.73833e-05)
(0.00065912 -0.000145297 1.4633e-05)
(0.000617569 -0.000207414 4.76376e-05)
(0.000516161 -0.000101432 1.95523e-05)
(0.000457201 -3.07004e-05 1.51942e-07)
(0.000464825 -3.1081e-05 -3.31418e-06)
(0.000449182 -2.63997e-05 -1.32031e-07)
(0.000715553 -4.5751e-05 -1.37078e-06)
(0.000806675 -1.80042e-05 -6.62711e-07)
(0.000879714 -2.8529e-05 -1.21814e-06)
(0.00114361 -2.49704e-05 -9.54105e-07)
(0.000578336 -3.09518e-05 -3.7461e-06)
(0.000589751 -2.85257e-05 -4.80974e-06)
(0.00095417 -7.10271e-05 -4.66345e-06)
(0.000975091 -6.49571e-05 -6.50853e-06)
(0.000811795 -1.51142e-05 -1.13926e-07)
(0.000806649 -2.16986e-05 -5.07023e-07)
(0.00106573 -2.8042e-05 7.30111e-08)
(0.000813185 -8.91911e-06 1.1112e-07)
(0.000819858 -1.22396e-05 1.72899e-07)
(0.00108641 -1.51368e-05 2.0259e-07)
(0.000813476 -5.88511e-06 5.64337e-08)
(0.000815807 -7.95442e-06 6.97717e-08)
(0.00108397 -1.03814e-05 1.77945e-07)
(0.000812903 -3.55265e-06 5.86806e-08)
(0.000815331 -4.84757e-06 6.4301e-08)
(0.00108437 -6.35954e-06 1.8377e-07)
(0.000811799 -2.10461e-06 5.18343e-08)
(0.000813536 -2.84623e-06 3.83437e-08)
(0.00108305 -3.7592e-06 1.80945e-07)
(0.000810453 -1.34346e-06 5.01876e-08)
(0.000811699 -1.72741e-06 3.35906e-08)
(0.0010814 -2.25685e-06 1.80881e-07)
(0.00080904 -8.82086e-07 1.9983e-08)
(0.000810106 -1.16741e-06 4.97863e-08)
(0.00107959 -1.56879e-06 1.7947e-07)
(0.000807227 -6.63015e-07 1.66026e-08)
(0.000808423 -8.77741e-07 1.87012e-08)
(0.00107731 -9.19808e-07 8.25785e-08)
(0.000806322 -7.02523e-07 3.857e-08)
(0.000806728 -8.01681e-07 5.5195e-08)
(0.0010756 -9.12322e-07 1.87973e-07)
(0.000804653 -6.33757e-07 4.51735e-08)
(0.000805489 -4.37137e-07 6.62482e-08)
(0.00107395 -9.75004e-07 1.83677e-07)
(0.000803264 -4.09623e-07 5.30549e-08)
(0.000804125 -2.48088e-07 6.13586e-08)
(0.00107185 -7.11836e-07 2.0152e-07)
(0.000801516 -3.227e-07 1.75096e-08)
(0.0008024 -1.33239e-07 7.6897e-08)
(0.00106981 -3.95859e-07 1.79208e-07)
(0.000799851 -3.20729e-07 1.99267e-08)
(0.000800768 -2.90631e-07 1.23781e-07)
(0.00106753 -4.94133e-07 1.74377e-07)
(0.000798302 -2.46566e-07 3.77939e-08)
(0.000799184 3.76072e-08 7.76241e-08)
(0.0010653 -3.91597e-07 1.50604e-07)
(0.000796947 -7.45274e-08 2.54172e-08)
(0.000797699 6.81741e-08 4.74173e-08)
(0.00106342 -3.00715e-07 2.09426e-07)
(0.000795286 1.45157e-07 4.69549e-08)
(0.000796223 -6.27437e-08 4.96662e-08)
(0.0010615 6.70526e-08 1.69304e-07)
(0.000793769 3.2511e-07 6.25461e-08)
(0.000794634 1.99245e-08 6.59566e-08)
(0.00105929 2.96422e-07 1.77124e-07)
(0.000792228 6.00886e-07 2.53393e-08)
(0.000793121 6.11071e-07 6.26409e-08)
(0.00105724 5.81115e-07 1.30499e-07)
(0.000791267 6.66421e-07 1.78568e-08)
(0.000791612 1.08797e-06 8.85921e-09)
(0.0010557 1.10635e-06 7.06222e-08)
(0.0007891 4.68835e-07 6.68079e-08)
(0.000789936 1.42991e-07 2.97282e-08)
(0.00105361 7.84706e-07 2.72388e-07)
(0.000787687 4.36328e-07 7.88896e-08)
(0.000788428 3.46901e-07 8.70664e-08)
(0.00105115 5.96626e-07 1.71721e-07)
(0.00078589 2.57145e-07 5.80939e-08)
(0.000786849 1.31231e-07 6.36567e-08)
(0.00104897 7.31078e-07 2.40532e-07)
(0.000784526 -2.08199e-09 4.82964e-08)
(0.000785194 -1.04679e-07 3.89836e-08)
(0.00104694 8.75555e-08 1.76407e-07)
(0.000783118 3.81826e-08 3.72166e-08)
(0.000783818 5.14757e-08 5.07544e-08)
(0.00104515 -2.7681e-08 1.76886e-07)
(0.000781736 8.25737e-08 4.04513e-08)
(0.000782389 3.17059e-07 4.50117e-08)
(0.00104323 1.47215e-07 1.41601e-07)
(0.000780181 2.84523e-08 1.05945e-07)
(0.000780905 -3.64784e-08 5.30596e-08)
(0.00104135 7.82928e-08 1.77634e-07)
(0.000778886 -5.43768e-08 9.84434e-08)
(0.000779444 -1.06737e-07 1.02625e-07)
(0.00103941 -1.11895e-08 1.66758e-07)
(0.000777375 -1.89235e-07 3.24816e-08)
(0.000777977 1.68169e-07 5.60418e-08)
(0.00103757 -1.43573e-07 1.68636e-07)
(0.000775797 -3.05354e-07 7.75927e-09)
(0.000776441 -3.68493e-07 3.40284e-08)
(0.00103547 -3.85459e-07 1.96304e-07)
(0.000774237 -1.78554e-07 1.7586e-08)
(0.000775081 9.28142e-07 4.06201e-08)
(0.00103333 -4.66536e-07 1.7449e-07)
(0.000772944 8.44559e-08 4.72765e-08)
(0.000773767 -3.74112e-08 6.43004e-08)
(0.00103145 -2.01578e-08 1.64795e-07)
(0.000771877 2.30929e-07 8.67495e-08)
(0.000772399 2.33096e-07 6.9319e-08)
(0.00102999 2.68398e-07 1.4791e-07)
(0.000769959 2.69336e-07 4.1242e-08)
(0.000770877 1.4008e-07 7.21753e-08)
(0.00102794 3.94114e-07 1.20877e-07)
(0.000768701 1.48625e-07 -1.35619e-09)
(0.000769364 -1.26974e-06 -5.51225e-08)
(0.00102586 3.79091e-07 2.81607e-07)
(0.000767447 1.90097e-08 3.94195e-08)
(0.000768052 8.5985e-08 3.78917e-08)
(0.00102415 6.6323e-08 1.45589e-07)
(0.000766047 4.38787e-08 6.21763e-08)
(0.000766805 6.1937e-08 4.66004e-08)
(0.0010223 1.95981e-08 1.60778e-07)
(0.000764731 1.84206e-07 -8.73882e-09)
(0.000765532 9.67084e-07 4.80393e-08)
(0.00102058 8.71794e-08 1.05689e-07)
(0.000762674 2.4113e-07 -2.49871e-08)
(0.000763736 1.11615e-06 -2.61116e-08)
(0.00101824 3.49918e-07 1.74981e-07)
(0.000761493 2.30002e-07 1.04581e-07)
(0.000762061 -4.34241e-08 6.37075e-08)
(0.00101606 2.63082e-07 1.67955e-07)
(0.000760772 -1.33081e-06 1.05637e-07)
(0.00101456 3.49128e-07 1.95891e-07)
(0.0472809 -0.0112215 0.000707405)
(0.0178952 -0.00624096 -0.000988377)
(0.0273699 -0.00456632 -0.00377544)
(-0.0142405 -0.0188391 0.000122066)
(-0.02346 -0.0267063 0.000587512)
(-0.0165656 -0.0233481 0.00180556)
(0.0196541 -0.0178036 -0.00268925)
(-0.00623803 -0.0325112 -0.0013608)
(0.0306059 -0.0281019 -0.00388869)
(0.0225289 -0.021227 -0.000728019)
(0.0141027 0.00938536 -0.000922862)
(0.0181201 -0.00940258 -0.000221613)
(0.00157509 -0.00922713 -0.00101918)
(-0.00176693 -0.00659428 -0.000260693)
(-0.00088769 0.0133658 0.00221407)
(0.000262663 0.0120345 -0.00319083)
(0.00398295 0.0118053 0.000598979)
(0.0220678 0.0193521 -0.000347467)
(0.0298954 0.0210081 -0.0186071)
(-0.0127813 0.0255761 -0.00014083)
(-0.020951 -0.0760889 0.0653787)
(0.0352163 0.00133839 -0.0389348)
(-0.0203765 0.00410783 -0.000862971)
(-0.0193381 0.00669217 -0.00178003)
(-0.0513473 0.00881592 0.00118787)
(-0.0115502 -0.00971591 -0.00252066)
(-0.0273856 0.00291748 -0.000233194)
(-0.0275073 0.00216645 0.00324022)
(-0.0203531 -0.00744183 -0.00163789)
(-0.0452841 0.00978295 0.00369343)
(-0.0610147 0.00061705 0.00618526)
(-0.0476006 0.00461469 -0.000638295)
(-0.0681715 0.0125508 -0.0180703)
(0.00419736 0.00156103 0.000233886)
(0.00826515 0.00266371 -0.000385813)
(0.00206676 -0.000348241 0.00027467)
(0.00349691 -0.00105282 0.000189737)
(0.00652034 0.00176891 0.000697873)
(0.000103753 -0.00070659 2.63593e-05)
(0.000293869 -0.000165787 -2.2915e-05)
(0.00081237 0.000111044 1.29288e-06)
(0.000606312 -8.33766e-05 7.95827e-06)
(-0.000422294 -0.000183866 -3.74131e-05)
(0.000244705 -0.000614484 -1.89275e-06)
(0.000855559 -0.00146891 7.92497e-05)
(0.000538937 -0.00076013 7.06875e-06)
(0.00100086 0.000434655 8.02462e-05)
(0.0017367 0.000469758 7.5494e-05)
(0.00205793 5.40925e-05 0.000111093)
(0.00139523 0.000286559 -1.34311e-05)
(0.00149295 0.000189669 8.10702e-05)
(0.000341849 -2.52105e-05 -2.10058e-06)
(0.000501132 -2.79972e-05 -3.54257e-06)
(0.000482952 -2.42993e-05 -4.02006e-07)
(0.000824967 -5.97554e-05 -1.1281e-06)
(0.000358473 -1.02422e-05 -2.75149e-06)
(0.000625118 -5.1726e-05 2.0931e-07)
(0.000666672 -1.2085e-05 -2.65581e-06)
(0.000480654 -3.74523e-05 -1.75824e-07)
(0.000830516 -2.57758e-05 -1.06268e-06)
(0.000907527 -2.18937e-05 -1.45492e-06)
(0.00120472 -4.35243e-05 -1.00768e-06)
(0.000620477 -2.56701e-05 -4.22681e-06)
(0.000618533 -1.76608e-05 -5.10168e-06)