/*--------------------------------*- C++ -*----------------------------------*\
| =========                 |                                                 |
| \\      /  F ield         | OpenFOAM: The Open Source CFD Toolbox           |
|  \\    /   O peration     | Version:  5.0                                   |
|   \\  /    A nd           | Web:      www.OpenFOAM.org                      |
|    \\/     M anipulation  |                                                 |
\*---------------------------------------------------------------------------*/
FoamFile
{
    version     2.0;
    format      ascii;
    class       surfaceVectorField;
    location    "5";
    object      Uf_0;
}
// * * * * * * * * * * * * * * * * * * * * * * * * * * * * * * * * * * * * * //

dimensions      [0 1 -1 0 0 0 0];

internalField   nonuniform List<vector> 
28933
(
(-0.000962214 0.00425367 -0.000154653)
(0.00194314 -0.000157685 -6.51557e-05)
(0.00119304 0.00195542 0.000130813)
(0.0037608 0.00197661 0.000504436)
(0.000476277 0.0067536 -0.000171586)
(-0.000494624 0.0059666 0.000886653)
(0.00178094 0.0012177 1.1975e-05)
(-0.00235707 0.00220587 0.000411336)
(-0.0021515 0.00141836 0.00087405)
(0.000865978 0.00552165 -0.000998617)
(-0.000428604 0.00541827 -0.000155504)
(-0.0010652 0.00532947 -0.0014669)
(0.00282571 -0.000976612 0.000553535)
(0.000156777 -1.75563e-05 0.000462672)
(-0.00036874 -0.00141912 0.000869597)
(-0.00036874 -0.00141912 0.000869597)
(-0.00036874 -0.00141912 0.000869597)
(-0.00036874 -0.00141912 0.000869597)
(-0.0196458 -0.0098598 -0.000300671)
(0.0158883 0.000933413 -0.000404477)
(-0.000921096 -0.00687717 -0.00327534)
(0.00528191 -0.0128359 -0.0051393)
(-0.000614153 0.000323531 -2.04418e-05)
(-0.00789691 0.00421433 0.000256312)
(-0.00528542 0.00464667 -0.00010759)
(-0.00456351 0.00931583 0.000407054)
(-0.00359145 -0.000116007 -7.75761e-06)
(-0.000811756 0.00220501 -4.53606e-05)
(-0.00192908 0.00105283 -6.94819e-05)
(-0.00144558 0.00347958 -0.000117345)
(0.000307473 0.000939314 2.24186e-05)
(0.00122839 0.000773181 3.57111e-05)
(0.00116914 0.000879711 -8.00392e-05)
(0.00103784 0.000351996 2.56974e-05)
(0.000235245 4.58945e-05 -2.10155e-06)
(0.000357846 5.27787e-05 -2.89731e-06)
(0.000337303 4.50185e-05 -5.10731e-07)
(0.000588262 0.000107883 -2.76151e-07)
(0.000221973 3.61282e-05 -1.97882e-06)
(0.000440013 7.76885e-05 -3.78002e-07)
(0.000412203 5.29396e-05 -7.50751e-08)
(0.000732773 3.16028e-05 -7.94109e-07)
(0.000747289 -5.23012e-07 -1.11833e-06)
(0.00100163 5.15896e-05 -9.45215e-07)
(0.000496915 3.79966e-05 -3.81987e-06)
(0.000490887 1.71005e-05 -4.35476e-06)
(0.000840152 6.65709e-05 -4.48109e-06)
(0.000821297 2.19873e-05 -5.2545e-06)
(0.000767689 1.92694e-05 -1.16166e-07)
(0.000743898 5.58333e-07 -4.34007e-07)
(0.000996053 3.24252e-05 1.16605e-07)
(0.000787722 1.14325e-05 1.26911e-07)
(0.000780221 -6.47571e-07 1.71421e-07)
(0.00104243 1.92328e-05 1.95372e-07)
(0.00080008 6.90634e-06 2.52418e-08)
(0.00079425 -3.26296e-07 4.64159e-08)
(0.00105925 1.16178e-05 1.71524e-07)
(0.000807406 4.40031e-06 3.66782e-08)
(0.000804116 -2.62444e-07 3.00113e-08)
(0.00107193 7.09841e-06 1.86028e-07)
(0.000810305 2.8946e-06 5.83307e-08)
(0.000809011 -4.06643e-07 5.91139e-08)
(0.00107778 4.85068e-06 1.61804e-07)
(0.000811901 1.76155e-06 1.14542e-07)
(0.000811258 -2.74462e-07 4.71186e-08)
(0.00108018 3.01058e-06 1.85332e-07)
(0.000812329 1.10042e-06 1.16439e-07)
(0.000812266 9.81543e-07 1.19305e-07)
(0.00108127 1.77558e-06 1.55001e-07)
(0.000812376 9.0414e-07 5.77714e-08)
(0.000812523 -1.22021e-07 4.21382e-08)
(0.00108142 1.20616e-06 1.79433e-07)
(0.000811003 7.64937e-07 5.88773e-08)
(0.000811904 3.23133e-08 5.66614e-08)
(0.00108046 1.20297e-06 1.59486e-07)
(0.000810236 4.59908e-07 1.25074e-07)
(0.000810677 -2.33982e-07 4.26225e-08)
(0.00107886 8.02377e-07 1.91186e-07)
(0.000809035 2.65202e-07 1.31219e-07)
(0.000809617 4.29854e-08 1.08368e-07)
(0.00107761 3.77978e-07 1.81035e-07)
(0.00080778 2.63119e-07 -4.47119e-08)
(0.000808489 1.90202e-07 7.37814e-08)
(0.00107599 3.19238e-07 1.48437e-07)
(0.000806478 2.5995e-07 -4.66333e-08)
(0.000807135 -2.80692e-07 -4.74788e-08)
(0.00107415 4.3139e-07 1.75635e-07)
(0.000805138 2.09319e-07 5.4132e-08)
(0.000805752 -6.1789e-07 5.29293e-08)
(0.00107239 3.33428e-07 2.08963e-07)
(0.000803549 2.97237e-07 6.23272e-08)
(0.000804481 6.60902e-08 3.2003e-08)
(0.00107044 2.86143e-07 1.90785e-07)
(0.000802464 4.17704e-07 3.18593e-08)
(0.000803155 -9.23297e-07 5.02999e-08)
(0.00106868 5.64512e-07 2.27128e-07)
(0.000800803 4.62678e-07 2.38435e-08)
(0.000801686 6.79291e-07 2.49063e-08)
(0.00106676 6.34669e-07 1.73814e-07)
(0.000800041 3.44466e-07 5.54213e-08)
(0.000800248 -9.95703e-07 4.12946e-08)
(0.00106514 6.61143e-07 1.80366e-07)
(0.000798556 2.35008e-07 1.03415e-07)
(0.00079899 1.48546e-07 4.764e-08)
(0.00106385 2.69194e-07 1.77757e-07)
(0.000796456 2.44913e-08 1.07962e-07)
(0.000797312 5.17053e-07 8.97363e-08)
(0.00106127 3.45409e-07 6.79522e-08)
(0.000795185 -4.26499e-07 3.71088e-09)
(0.000795624 -3.37659e-07 6.90646e-08)
(0.00105894 -3.16192e-07 1.7071e-07)
(0.000793913 -5.90506e-07 8.34026e-09)
(0.000794523 1.74812e-06 3.84208e-08)
(0.00105739 -8.60283e-07 -1.47071e-08)
(0.000792502 -4.66058e-07 5.33495e-08)
(0.000793311 8.57928e-07 5.07221e-08)
(0.00105545 -7.36015e-07 2.28718e-07)
(0.000791149 -2.49842e-07 3.72602e-08)
(0.000791999 1.38432e-07 1.10738e-07)
(0.00105359 -5.11579e-07 1.19309e-07)
(0.000790197 -2.66913e-08 3.86411e-08)
(0.000790857 -1.19898e-07 1.75742e-07)
(0.00105224 -1.34616e-07 1.49593e-07)
(0.000788537 2.87259e-08 4.1416e-08)
(0.000789376 7.60399e-08 4.47697e-08)
(0.00105048 1.02253e-07 1.6732e-07)
(0.000787101 -2.60965e-10 3.78768e-08)
(0.000787792 2.72245e-07 5.87296e-08)
(0.00104832 2.43998e-08 1.62884e-07)
(0.000785649 3.68807e-08 3.72859e-08)
(0.000786502 1.17466e-07 3.89195e-08)
(0.00104639 2.2248e-08 1.73347e-07)
(0.000784305 2.07316e-07 2.42604e-09)
(0.000785125 1.24595e-07 4.79899e-08)
(0.0010444 1.23248e-07 1.62704e-07)
(0.00078279 3.81775e-07 1.55575e-08)
(0.00078367 2.63623e-07 -1.61786e-09)
(0.00104258 5.05804e-07 1.84705e-07)
(0.000782025 2.35689e-07 4.88794e-08)
(0.000782314 -1.07151e-06 6.88286e-08)
(0.00104119 5.58634e-07 1.93882e-07)
(0.000780595 -8.98909e-09 5.21826e-08)
(0.000780987 9.19155e-08 2.233e-08)
(0.00103961 8.07058e-08 1.72768e-07)
(0.000779302 -3.02924e-07 4.72068e-08)
(0.000779562 -1.51132e-07 7.24182e-08)
(0.00103769 -7.93077e-08 1.78864e-07)
(0.000777435 -4.45109e-07 1.29321e-07)
(0.000778261 1.34526e-06 4.30512e-08)
(0.00103583 -6.81957e-07 1.0059e-07)
(0.000776239 -2.99004e-07 1.50428e-07)
(0.000776972 -5.0342e-07 1.376e-07)
(0.00103363 -4.52738e-07 1.88456e-07)
(0.000774767 -2.35022e-07 2.92919e-08)
(0.000775557 5.73595e-08 6.32836e-08)
(0.0010318 -3.22192e-07 1.72465e-07)
(0.000773494 -2.88622e-07 2.20711e-08)
(0.000774072 -2.17091e-08 2.76962e-08)
(0.00103005 -3.04172e-07 1.598e-07)
(0.000772172 -4.43422e-07 4.49764e-08)
(0.000772778 -2.32101e-07 4.93309e-08)
(0.00102821 -4.42259e-07 1.71991e-07)
(0.000770793 -4.48515e-07 1.25256e-08)
(0.000771525 -4.10634e-07 5.04417e-08)
(0.00102657 -6.81178e-07 1.6975e-07)
(0.00076887 -2.93355e-07 3.19204e-08)
(0.000769849 1.4638e-06 4.44871e-08)
(0.00102428 -4.75159e-07 6.60517e-08)
(0.000768449 -4.99746e-07 5.51034e-08)
(0.00102184 -3.1495e-07 2.60289e-07)
(0.00369734 0.0018875 -8.20536e-05)
(-7.63019e-05 0.00191661 4.96215e-05)
(0.00255821 -0.004052 -0.000377324)
(0.00361573 0.00347946 1.08062e-05)
(-0.00102267 0.00624932 1.64184e-05)
(0.00531744 0.00238684 4.07045e-05)
(-0.000738406 -0.00747076 -2.21522e-05)
(0.000953182 0.00619234 0.000386521)
(0.00288995 -0.000973379 -0.000496019)
(0.00388248 -0.00119301 0.000133651)
(0.00185626 -0.00439629 0.00110489)
(0.00137633 -0.00168706 0.000995917)
(0.0013684 -0.00482848 -0.00101836)
(-0.000292764 -0.0056073 -0.00254492)
(0.00138069 -0.000379212 9.56902e-06)
(0.00305646 -0.00122716 0.0010743)
(0.00296761 -0.00548249 0.000207707)
(0.00252589 -0.00604279 -0.000191)
(0.00356517 -0.004458 0.000145712)
(0.00540008 -0.0115353 0.000307655)
(0.00750982 -0.00990746 0.000188304)
(0.00431027 -0.00610887 0.000122817)
(0.0038396 -0.0106274 -0.00105555)
(-0.00754531 -0.00548733 0.000252415)
(-0.00184111 -0.00173286 -0.000211802)
(-0.00262319 -0.00054971 -8.05451e-05)
(0.00472501 -0.0027855 -0.000220121)
(-0.00051541 -0.00621864 0.000190519)
(0.000367406 0.00111641 -3.98956e-05)
(0.00264744 -0.000128858 -4.03776e-05)
(0.00116951 -0.000845327 9.0222e-05)
(0.00327902 -0.00216431 5.84517e-05)
(0.00290358 -0.00151331 0.00034542)
(0.000127004 1.84022e-05 3.5233e-05)
(0.000800064 9.06826e-05 9.36683e-05)
(0.000693937 -4.29966e-05 0.000107703)
(0.000187081 0.000181883 -2.17806e-05)
(0.000492387 5.40541e-05 4.97868e-05)
(0.000208766 -4.97057e-07 -1.47764e-06)
(0.000368626 -1.12577e-05 -3.2561e-06)
(0.000307382 -2.90594e-05 -7.57742e-07)
(0.000519406 -1.33767e-05 -1.4188e-06)
(0.000229291 -1.12266e-05 -8.23142e-07)
(0.000399637 4.76708e-06 2.62545e-06)
(0.000449282 -2.10203e-05 3.51161e-06)
(0.000315818 8.35377e-06 -1.28939e-06)
(0.000734092 -3.33202e-05 -7.58451e-07)
(0.000780579 -8.84183e-05 -1.68508e-06)
(0.00100763 -5.18899e-05 -7.81958e-07)
(0.000489713 -2.28354e-05 -3.01087e-06)
(0.000490921 -4.77474e-05 -4.27072e-06)
(0.000816178 -2.93765e-05 -3.44257e-06)
(0.00081901 -8.09424e-05 -5.12549e-06)
(0.000766973 -1.96699e-05 -1.46617e-07)
(0.000761085 -4.17708e-05 -3.99953e-07)
(0.000995235 -2.79606e-05 1.19175e-07)
(0.000787939 -1.24659e-05 9.09669e-08)
(0.000789258 -2.91912e-05 1.07803e-07)
(0.0010413 -1.83656e-05 1.96129e-07)
(0.000800029 -7.54139e-06 5.11907e-08)
(0.000800425 -1.74964e-05 4.82009e-08)
(0.00105916 -1.08464e-05 1.81063e-07)
(0.000806893 -4.78152e-06 5.24376e-08)
(0.000807576 -1.08728e-05 5.39972e-08)
(0.00107109 -6.65685e-06 1.8399e-07)
(0.000810394 -3.08806e-06 4.79058e-08)
(0.000811134 -6.79069e-06 4.83142e-08)
(0.00107726 -4.4425e-06 1.81836e-07)
(0.000811973 -1.96705e-06 5.1858e-08)
(0.000812664 -4.22781e-06 4.93359e-08)
(0.00108021 -2.75122e-06 1.79663e-07)
(0.000812572 -1.21869e-06 4.50285e-08)
(0.000813204 -2.14558e-06 4.78803e-08)
(0.00108139 -1.84628e-06 2.08995e-07)
(0.000812495 -8.05689e-07 4.10235e-08)
(0.000813041 -2.15437e-06 4.02913e-08)
(0.00108164 -1.00333e-06 1.93911e-07)
(0.000811456 -4.85906e-07 4.04111e-08)
(0.000812305 -1.20411e-07 5.97571e-08)
(0.00108083 -8.78774e-07 1.4781e-07)
(0.000810132 -1.67159e-07 2.58956e-08)
(0.000811076 3.26987e-07 6.70523e-08)
(0.00107909 -2.35603e-07 1.23682e-07)
(0.000809049 -4.67919e-08 5.09417e-08)
(0.000809768 -3.44575e-07 4.41523e-08)
(0.00107747 -9.24774e-08 1.69225e-07)
(0.000807915 6.06487e-08 7.10533e-08)
(0.000808623 -2.68685e-07 1.4919e-07)
(0.00107605 4.91004e-08 1.79101e-07)
(0.000806362 2.06887e-07 5.20517e-08)
(0.000807317 -2.5086e-07 5.12043e-08)
(0.00107422 1.54456e-07 1.82198e-07)
(0.000805138 2.98828e-07 3.0807e-08)
(0.000805866 3.24393e-07 4.63646e-08)
(0.00107225 4.21024e-07 9.0761e-08)
(0.000804054 3.47023e-07 1.99699e-08)
(0.00080454 -5.49063e-07 -4.34988e-08)
(0.00107081 4.12949e-07 1.87779e-07)
(0.000802405 2.90499e-07 4.3355e-08)
(0.000803083 -9.79648e-08 3.928e-08)
(0.00106903 5.50481e-07 1.37212e-07)
(0.00080114 2.20113e-07 4.23522e-08)
(0.000801596 5.1316e-08 6.83301e-08)
(0.00106695 2.58548e-07 2.06003e-07)
(0.000799145 1.03102e-07 3.35113e-08)
(0.000800101 -1.58416e-07 3.62848e-08)
(0.00106474 3.52706e-07 1.67767e-07)
(0.000797936 -3.68163e-07 3.39478e-08)
(0.000798402 -1.16199e-07 5.50363e-08)
(0.0010627 -7.98243e-08 1.76632e-07)
(0.000796299 -5.28636e-07 5.08449e-08)
(0.000797113 1.84785e-06 6.88405e-08)
(0.00106078 -9.24378e-07 1.02409e-07)
(0.000794875 -3.81811e-07 1.03784e-07)
(0.00079581 -1.98409e-07 4.96043e-08)
(0.0010586 -5.1185e-07 1.67715e-07)
(0.000793988 -2.96866e-07 8.07989e-08)
(0.00079463 3.0736e-09 1.13819e-07)
(0.00105721 -5.13502e-07 2.5371e-07)
(0.000792859 1.75021e-08 1.08092e-07)
(0.000793704 -1.31055e-07 4.57996e-08)
(0.00105585 -2.77322e-07 2.21667e-07)
(0.000791606 3.5272e-07 2.492e-07)
(0.000792417 5.18554e-07 2.35311e-07)
(0.00105424 3.79228e-07 1.35423e-07)
(0.00079024 2.90741e-07 1.81912e-07)
(0.000790778 6.12042e-07 2.14758e-07)
(0.00105257 6.53737e-07 1.20213e-07)
(0.000788447 1.328e-07 6.20789e-08)
(0.000789177 6.00407e-07 4.66992e-08)
(0.00105037 1.76105e-07 1.72895e-07)
(0.000787213 1.74416e-07 5.97785e-08)
(0.000787843 2.02524e-08 6.41167e-08)
(0.00104828 2.06162e-07 1.78116e-07)
(0.000786025 2.13124e-07 4.96208e-08)
(0.000786549 -1.00596e-07 5.00953e-08)
(0.00104672 2.75905e-07 1.71542e-07)
(0.000784501 2.92133e-07 4.39614e-08)
(0.000785222 1.68907e-07 5.11844e-08)
(0.00104501 3.31966e-07 1.82762e-07)
(0.000783122 4.23283e-07 5.16315e-08)
(0.000783832 4.07769e-07 3.91823e-08)
(0.00104296 5.36394e-07 1.62586e-07)
(0.000781288 3.12981e-07 4.22936e-08)
(0.000782174 -6.89033e-07 5.40619e-08)
(0.00104073 6.6211e-07 1.86101e-07)
(0.000780007 2.77653e-08 4.25502e-08)
(0.00078063 -5.26766e-08 4.73027e-09)
(0.00103872 1.79756e-07 1.74034e-07)
(0.000778497 -2.64869e-07 6.82716e-08)
(0.000779197 1.70508e-09 6.85667e-08)
(0.00103681 -1.0695e-07 1.72729e-07)
(0.000777738 -4.2508e-07 5.13009e-08)
(0.000778063 2.57466e-07 1.02486e-07)
(0.00103527 -5.67849e-07 1.94151e-07)
(0.000776388 -2.84205e-07 5.04784e-08)
(0.000777149 -1.09215e-07 6.70995e-08)
(0.00103401 -5.67043e-07 1.39957e-07)
(0.000774851 -1.37264e-07 6.16988e-08)
(0.000775743 -8.60059e-08 7.06903e-08)
(0.00103204 -2.34578e-07 1.9548e-07)
(0.00077321 -4.80119e-09 5.49495e-08)
(0.000774238 1.63307e-07 8.37097e-08)
(0.00102986 -1.74609e-07 1.80829e-07)
(0.000772283 -1.11838e-08 5.47958e-08)
(0.000772771 -9.53042e-07 6.47575e-08)
(0.00102821 1.18908e-07 1.81486e-07)
(0.000770643 -2.35655e-07 8.24049e-08)
(0.000771245 -1.90213e-07 6.31295e-08)
(0.00102648 -1.5746e-07 1.77528e-07)
(0.000769218 -2.94819e-07 6.76669e-08)
(0.000769778 -1.13318e-07 4.44396e-08)
(0.00102431 -4.64328e-07 2.8906e-07)
(0.000768817 1.7924e-07 5.05509e-08)
(0.00102297 -3.25373e-07 8.49214e-08)
(-0.00403721 0.00726323 0.000148105)
(-0.00174184 0.00320764 0.000463041)
(-0.00286473 0.00241713 0.000319844)
(-0.00230072 0.0079427 0.000392011)
(-0.00372316 0.00148016 0.000319422)
(-0.00503283 0.00491492 0.000173526)
(-0.00756019 -0.00590079 0.000213607)
(-0.00335163 -0.0015045 0.000581852)
(-0.00132419 0.00698569 0.000712975)
(-0.00532007 -0.0030229 -0.000291061)
(-0.0124972 -0.00398443 0.00024412)
(-0.0052577 0.00365079 -0.0013621)
(-0.00443349 0.0111591 0.00456029)
(0.000990778 0.00918754 0.00157659)
(0.00103895 0.0117624 -0.00298918)
(-0.00402362 -0.0141076 -0.000118857)
(-0.00552739 -0.0151359 -0.000428501)
(-0.00802164 -0.0113967 5.19914e-06)
(-9.79557e-06 -0.0106349 0.000122667)
(0.00289471 0.00104766 -0.000225559)
(0.00151732 0.00550626 -1.94078e-05)
(0.00333713 0.0115667 -0.000278522)
(0.00469125 -0.000877364 -0.000275648)
(-0.0069082 0.0112992 0.00502741)
(0.015571 0.00346889 0.00118107)
(0.0273426 0.00411267 0.00531754)
(-0.00400133 0.0177475 0.0017202)
(-0.0021249 0.00205641 -2.82792e-05)
(-0.00551583 0.000535918 5.09387e-05)
(-0.00251258 0.000694526 -7.54199e-05)
(-0.00372004 0.00101658 -0.000124129)
(-0.00609864 0.00382739 -0.000182806)
(0.000438758 -0.000495275 2.12818e-05)
(0.000422083 -0.000309165 3.15702e-05)
(0.000261995 -0.000847974 1.49679e-05)
(0.000848701 -0.00091579 2.29416e-05)
(0.0005982 -0.000940221 4.87245e-05)
(0.000273265 -0.000128945 1.93565e-05)
(0.000264253 -5.10486e-05 2.34736e-06)
(0.000254431 -6.59313e-05 3.95355e-06)
(0.000418809 -0.000100292 7.6455e-06)
(0.00019488 -5.74179e-05 1.89229e-07)
(0.000779885 -8.74107e-05 -1.327e-06)
(0.000564504 -0.00010364 -1.52009e-06)
(0.00108375 -0.0001585 -1.22919e-06)
(0.000542903 -9.88228e-05 -4.26458e-06)
(0.000549292 -0.000105896 -5.14445e-06)
(0.000907414 -0.000155303 -5.11723e-06)
(0.000906523 -0.000167612 -5.217e-06)
(0.000557112 -0.000108362 -4.46162e-06)
(0.000949599 -0.000160996 -1.1891e-06)
(0.000932752 -0.000171806 -5.2797e-06)
(0.000791357 -4.29869e-05 -1.45699e-07)
(0.000825747 -5.63755e-05 -6.89459e-07)
(0.00103826 -5.73973e-05 5.78966e-08)
(0.000802933 -3.00338e-05 6.50569e-08)
(0.000805596 -4.59294e-05 -1.63844e-07)
(0.00106388 -4.67203e-05 1.96283e-07)
(0.000809355 -1.80504e-05 5.10054e-08)
(0.000815469 -2.76732e-05 1.05905e-07)
(0.00107392 -2.68933e-05 1.9091e-07)
(0.000812561 -1.14443e-05 4.98757e-08)
(0.000815874 -1.69906e-05 4.43947e-08)
(0.00107995 -1.72695e-05 1.89435e-07)
(0.000813816 -7.1576e-06 4.9744e-08)
(0.000816518 -1.03354e-05 5.4402e-08)
(0.00108267 -1.07745e-05 1.79837e-07)
(0.000814053 -4.48971e-06 4.53588e-08)
(0.000816015 -6.48102e-06 4.98913e-08)
(0.00108344 -6.76578e-06 1.79332e-07)
(0.000813912 -2.85069e-06 4.31456e-08)
(0.000815263 -4.03227e-06 4.44983e-08)
(0.00108346 -4.2407e-06 1.88776e-07)
(0.000812959 -1.96993e-06 5.90186e-08)
(0.000814149 -2.67654e-06 4.69703e-08)
(0.00108263 -2.75418e-06 1.66187e-07)
(0.000812068 -1.52448e-06 8.63959e-08)
(0.000812867 -1.912e-06 6.91866e-08)
(0.00108142 -2.09979e-06 2.48715e-07)
(0.000810616 -1.02362e-06 8.53164e-08)
(0.000811706 -3.80589e-07 8.19644e-08)
(0.00107984 -1.7085e-06 2.22706e-07)
(0.000809338 -5.66434e-07 1.42367e-07)
(0.000810342 -7.55425e-07 4.83855e-08)
(0.00107797 -8.76397e-07 1.87932e-07)
(0.000808111 -3.60045e-07 1.29372e-07)
(0.000808883 -7.06515e-07 3.72227e-08)
(0.00107629 -5.74206e-07 1.85965e-07)
(0.000806813 -2.17292e-07 4.55188e-08)
(0.000807496 -4.11592e-07 4.63366e-08)
(0.00107461 -3.59959e-07 1.73525e-07)
(0.000805198 -9.64312e-08 -2.79126e-08)
(0.000806018 9.21738e-08 3.71598e-08)
(0.00107271 -1.96771e-07 2.06774e-07)
(0.000803697 -1.66757e-07 -2.4215e-08)
(0.000804453 -5.16963e-08 -1.83138e-08)
(0.0010706 -3.59891e-08 1.465e-07)
(0.000802094 -2.54676e-07 6.42459e-08)
(0.000802974 -5.90563e-07 5.87964e-08)
(0.00106848 -3.97857e-07 2.2534e-07)
(0.00080078 -2.63515e-07 6.22729e-08)
(0.000801586 1.23105e-07 5.80182e-08)
(0.00106651 -2.81794e-07 1.61287e-07)
(0.000799295 -1.9279e-07 5.78039e-08)
(0.00080019 -1.19948e-08 5.68377e-08)
(0.00106471 -3.74544e-07 1.71497e-07)
(0.000797407 3.38411e-08 8.99247e-08)
(0.000798686 -1.2852e-07 6.88204e-08)
(0.00106226 -7.33152e-08 2.18556e-07)
(0.000796805 3.39107e-07 6.7606e-08)
(0.000797494 -1.29145e-06 8.82275e-08)
(0.00106073 1.85096e-07 3.25935e-07)
(0.000795305 6.46864e-07 5.96189e-08)
(0.000796192 -9.79786e-07 1.98564e-08)
(0.00105945 7.31451e-07 2.39288e-07)
(0.000794482 6.81429e-07 7.8841e-08)
(0.00079467 -1.12123e-06 5.18183e-08)
(0.00105769 1.01815e-06 2.04046e-07)
(0.000793296 4.96027e-07 1.72959e-07)
(0.000793469 -1.73481e-06 -2.00135e-08)
(0.00105657 8.22551e-07 2.70221e-07)
(0.000791687 3.24755e-07 2.00876e-07)
(0.000792201 3.73002e-07 1.67421e-07)
(0.00105475 5.27245e-07 2.04234e-07)
(0.000789627 1.47697e-07 7.95983e-08)
(0.000790555 2.2477e-07 8.25047e-08)
(0.00105198 3.54477e-07 2.61568e-07)
(0.000788516 9.1342e-08 4.87315e-08)
(0.000789106 -3.01527e-08 4.68223e-08)
(0.00104992 4.72701e-08 1.94428e-07)
(0.000787216 1.36976e-07 5.44378e-08)
(0.0007879 -9.76175e-08 4.58423e-08)
(0.00104844 1.84436e-07 1.74521e-07)
(0.000785743 6.40717e-08 5.16586e-08)
(0.000786457 3.07486e-08 4.67167e-08)
(0.00104654 1.62618e-07 1.72052e-07)
(0.000784497 7.62215e-09 4.6409e-08)
(0.000785151 5.03047e-08 4.78265e-08)
(0.00104472 8.99228e-09 1.69659e-07)
(0.000783082 -4.71249e-08 4.1608e-08)
(0.000783763 5.28367e-07 2.95241e-08)
(0.00104299 -1.91559e-09 1.67393e-07)
(0.000781325 -3.46581e-08 1.65138e-08)
(0.00078219 -4.39876e-07 3.33337e-08)
(0.00104074 -1.25994e-07 1.88829e-07)
(0.000779958 7.3351e-08 3.0727e-08)
(0.000780764 -8.65718e-08 -1.77184e-08)
(0.00103865 4.19735e-08 1.73718e-07)
(0.00077846 2.8224e-07 1.02771e-07)
(0.000779457 -1.34443e-07 5.50537e-08)
(0.00103676 1.61999e-07 1.92516e-07)
(0.000777665 3.80773e-07 1.18296e-07)
(0.000778184 7.4315e-07 1.27414e-07)
(0.00103526 6.16929e-07 8.36178e-08)
(0.000776576 2.86103e-07 8.73103e-08)
(0.000777029 -1.38017e-06 3.28848e-08)
(0.00103405 4.50627e-07 2.36988e-07)
(0.000775121 2.76187e-07 9.26973e-08)
(0.000775728 4.82494e-08 2.52216e-08)
(0.0010323 3.99345e-07 1.67915e-07)
(0.000773748 4.27425e-07 9.35236e-08)
(0.000774425 1.1502e-08 7.46599e-08)
(0.0010305 4.09503e-07 1.80976e-07)
(0.000771763 4.053e-07 7.30917e-08)
(0.000772741 -4.69867e-08 8.4888e-08)
(0.00102823 7.36087e-07 1.59347e-07)
(0.000770345 2.15137e-07 2.51699e-08)
(0.000771006 -4.87894e-10 5.57273e-08)
(0.00102584 3.42552e-07 1.594e-07)
(0.000769199 1.39899e-07 2.73218e-08)
(0.000769682 -3.30598e-07 1.10288e-08)
(0.00102407 2.40347e-07 1.64028e-07)
(0.000768642 1.354e-07 5.98509e-08)
(0.00102283 1.24984e-07 1.60349e-07)
(-0.00175772 -0.00270671 0.000634406)
(0.00817274 -0.00819054 -0.000206951)
(0.00342459 0.00869681 0.000810711)
(0.0060149 -0.00652626 0.000739904)
(0.00780646 -0.00815455 -0.0012856)
(0.0126611 0.000101897 0.00210568)
(0.00342459 0.00869681 0.000810711)
(0.00342459 0.00869681 0.000810711)
(0.00342459 0.00869681 0.000810711)
(-0.00302404 -0.00588411 0.000509175)
(-0.0034682 -0.0109477 0.000655918)
(0.00223898 -0.00224434 -0.00124468)
(-0.00553464 -0.0066899 0.000604776)
(-0.0093563 -0.00687387 0.00293898)
(0.000877079 -0.0246968 -0.000242715)
(0.000416899 -0.0133659 -0.00290258)
(-0.0065543 -0.0147605 -0.00306354)
(0.00408545 -0.0042905 0.0113199)
(-0.00559956 0.000419423 -0.000487313)
(0.000247352 -0.002823 -0.000211823)
(0.00260678 -0.00369096 -0.00200772)
(-0.0069845 0.00227839 0.000343856)
(-0.00560764 -0.000879721 -0.00128706)
(-0.00281614 -0.00268443 -0.00024051)
(0.0122459 0.0110316 -0.000348488)
(-0.00195121 -0.00692955 -7.68621e-05)
(0.00125164 0.0131752 0.000796785)
(-0.00806532 -0.00997165 -0.00233793)
(0.0170423 -0.0053811 0.0042138)
(-0.00725533 -0.000757 -0.000485033)
(-0.000522701 0.00164069 -0.000875028)
(0.00995917 0.00280959 0.00102708)
(-0.00453471 0.00495585 -0.000319456)
(0.00390786 0.00358704 -0.00152651)
(0.00458515 -0.00623237 -0.00119863)
(-0.02969 0.000356375 0.000354221)
(0.00208482 -0.0096313 -0.000721577)
(-0.0146541 0.00663506 -0.00138979)
(-0.0152336 0.00223161 -0.00353404)
(-0.0132713 0.00195259 -0.000457517)
(-0.019989 0.00237292 0.000452392)
(-0.00459027 0.00282061 -0.000409941)
(-0.010179 0.00673045 0.000321861)
(-0.0129637 0.00670234 -0.00161794)
(-0.000209063 -0.000346811 -1.69948e-05)
(0.00132923 -0.000993835 2.84953e-05)
(0.000772822 -0.000808784 -3.03911e-05)
(0.00127224 -0.000970397 -1.25696e-05)
(0.000398455 -0.000789644 1.77316e-05)
(-0.000144362 -0.000165501 -4.05111e-05)
(0.000500135 -0.00095666 3.28046e-05)
(4.73092e-05 -0.000290016 -1.69897e-05)
(0.000204176 -0.000516165 -5.08021e-06)
(0.000147309 -0.000251223 -3.51026e-05)
(0.000154233 -0.000746837 -4.72495e-07)
(0.0011558 -0.000283758 6.35515e-05)
(0.000440618 -0.000282171 3.9193e-05)
(0.000660813 -0.000246228 1.70133e-05)
(0.00060571 -0.000337192 5.21342e-05)
(0.000509998 -0.000172588 2.10974e-05)
(0.00046282 -9.80713e-05 6.67772e-09)
(0.000475123 -8.6572e-05 -3.49774e-06)
(0.000470864 -9.46351e-05 -2.53221e-07)
(0.000729856 -0.000129886 -1.62892e-06)
(0.000821926 -5.67998e-05 -7.07776e-07)
(0.000911387 -7.24478e-05 -1.39323e-06)
(0.0011594 -8.03385e-05 -1.07684e-06)
(0.000588756 -7.97653e-05 -4.03746e-06)
(0.000613719 -7.39841e-05 -4.83792e-06)
(0.000968362 -0.000142227 -4.85572e-06)
(0.00101197 -0.000130194 -6.50736e-06)
(0.000822973 -3.80134e-05 -1.23084e-07)
(0.000829259 -4.76441e-05 -4.72552e-07)
(0.00107979 -6.04877e-05 7.255e-08)
(0.000821437 -2.26509e-05 9.9314e-08)
(0.000834767 -2.79218e-05 1.519e-07)
(0.00109612 -3.44714e-05 1.93941e-07)
(0.000820231 -1.42396e-05 4.89178e-08)
(0.000826444 -1.7322e-05 8.3153e-08)
(0.00109133 -2.20775e-05 1.71292e-07)
(0.000818786 -8.73724e-06 5.45507e-08)
(0.000823431 -1.05199e-05 5.75749e-08)
(0.00109044 -1.35226e-05 1.821e-07)
(0.000817228 -5.35796e-06 4.90325e-08)
(0.000820261 -6.46596e-06 4.07597e-08)
(0.00108842 -8.29807e-06 1.79404e-07)
(0.000815648 -3.35664e-06 4.83222e-08)
(0.000817778 -3.96161e-06 4.31405e-08)
(0.00108643 -5.05746e-06 1.79598e-07)
(0.000813971 -2.1359e-06 5.71312e-08)
(0.000815683 -2.47141e-06 4.81424e-08)
(0.00108433 -3.30747e-06 1.79488e-07)
(0.000812512 -1.38863e-06 6.4751e-08)
(0.000813807 -1.49677e-06 5.69311e-08)
(0.00108215 -2.0134e-06 1.45879e-07)
(0.000811528 -9.7871e-07 4.50442e-08)
(0.000812222 -1.10458e-06 1.50194e-07)
(0.00108063 -1.45879e-06 1.83963e-07)
(0.000809833 -6.57632e-07 -5.67549e-08)
(0.000810747 -5.10073e-07 4.14734e-09)
(0.00107889 -1.04031e-06 1.79089e-07)
(0.000808269 -4.63097e-07 -4.58155e-08)
(0.000809128 -4.58479e-07 -4.0079e-08)
(0.0010767 -6.7857e-07 1.67921e-07)
(0.000806734 -4.2136e-07 3.79806e-08)
(0.000807551 -3.32799e-07 3.00344e-08)
(0.0010747 -5.40932e-07 1.77481e-07)
(0.000805239 -3.70859e-07 4.67762e-08)
(0.000806083 5.85692e-07 5.18223e-08)
(0.00107266 -5.76123e-07 1.45816e-07)
(0.000803731 -2.64417e-07 6.46731e-08)
(0.000804587 -7.16245e-08 8.03328e-08)
(0.00107056 -4.17952e-07 1.83394e-07)
(0.000802417 -1.00734e-07 5.25689e-08)
(0.000803179 6.27096e-09 9.79109e-08)
(0.00106872 -3.06521e-07 1.23945e-07)
(0.000801001 7.20532e-08 5.25834e-08)
(0.000801802 -4.92374e-08 5.23302e-08)
(0.00106698 9.30695e-09 1.87225e-07)
(0.000799642 1.92082e-07 6.78504e-08)
(0.000800339 -8.23803e-08 6.50173e-08)
(0.001065 1.76721e-07 1.7574e-07)
(0.000798638 5.62256e-07 6.71171e-08)
(0.000799146 -5.48058e-07 5.18877e-08)
(0.0010634 3.85978e-07 1.69287e-07)
(0.000797049 7.33926e-07 4.04994e-08)
(0.000797705 -2.09798e-06 3.56521e-08)
(0.00106179 1.19785e-06 2.48333e-07)
(0.000795418 7.05475e-07 1.20457e-08)
(0.000796153 2.9951e-07 4.75302e-08)
(0.00105963 8.35153e-07 1.05127e-07)
(0.000793673 8.00052e-07 -4.70137e-08)
(0.000794785 -3.30853e-07 -3.28717e-08)
(0.00105731 1.08769e-06 1.49906e-07)
(0.000792377 5.15844e-07 -2.56102e-08)
(0.000793111 -5.66493e-07 -4.49163e-08)
(0.00105523 1.07419e-06 8.33834e-08)
(0.000791215 1.02075e-07 4.90767e-08)
(0.000791682 4.84649e-08 4.57985e-08)
(0.00105365 3.27703e-07 1.77178e-07)
(0.000789821 4.53105e-08 4.97399e-08)
(0.000790484 1.80611e-07 5.10612e-08)
(0.00105197 -4.33917e-08 1.77909e-07)
(0.000788604 9.81546e-08 4.39334e-08)
(0.000789172 3.78375e-08 4.83744e-08)
(0.00105016 1.76215e-07 1.54127e-07)
(0.000787133 4.69842e-08 3.81209e-08)
(0.000787836 6.29171e-08 4.41427e-08)
(0.00104843 8.812e-08 1.70034e-07)
(0.000785772 4.90459e-09 4.28842e-08)
(0.000786405 1.84871e-08 4.22677e-08)
(0.0010465 2.80279e-08 1.72394e-07)
(0.000784529 -1.64984e-07 3.09473e-08)
(0.000784939 -8.03989e-08 5.07807e-08)
(0.0010448 -3.65319e-08 1.70254e-07)
(0.000782834 -2.96152e-07 2.12486e-08)
(0.000783601 1.87731e-06 5.67716e-08)
(0.00104279 -4.29951e-07 1.0437e-07)
(0.000781642 -1.49925e-07 -8.82777e-10)
(0.000782374 -2.23679e-07 5.71751e-08)
(0.00104078 -3.96874e-07 1.4031e-07)
(0.000780228 4.91056e-08 6.58586e-09)
(0.000781013 -2.09305e-07 -2.56685e-09)
(0.00103907 -2.36669e-08 1.84405e-07)
(0.000779169 1.74231e-07 7.9675e-08)
(0.000779612 -3.22612e-07 1.30749e-07)
(0.00103752 1.94754e-07 1.56639e-07)
(0.000777495 3.13672e-07 4.20326e-08)
(0.000778357 -1.20699e-07 7.8402e-08)
(0.00103563 3.57146e-07 2.60776e-07)
(0.000776263 2.57786e-07 -2.92015e-08)
(0.000776957 4.48226e-07 2.83092e-08)
(0.00103373 5.37558e-07 2.53573e-08)
(0.000774966 7.68168e-08 7.16919e-09)
(0.000775501 1.97911e-07 6.5769e-09)
(0.00103198 1.61892e-07 1.52375e-07)
(0.000773763 -4.42889e-08 6.60212e-08)
(0.000774274 -5.76815e-08 4.46054e-08)
(0.00103027 5.47566e-08 1.59491e-07)
(0.000771569 -3.11501e-08 6.75324e-08)
(0.000772758 -6.3685e-07 2.28911e-08)
(0.00102812 -1.52267e-07 2.87416e-07)
(0.000770517 1.51394e-07 4.15998e-08)
(0.000771234 -3.69173e-07 1.95668e-08)
(0.00102586 9.17469e-08 1.66774e-07)
(0.00076891 2.35048e-07 4.35431e-08)
(0.000769783 9.79872e-08 6.72132e-08)
(0.00102403 3.19257e-07 1.5892e-07)
(0.000768349 3.48979e-07 6.96341e-08)
(0.00102252 3.13292e-07 1.25102e-07)
(0.0174873 -0.0131648 3.67396e-05)
(0.00890147 -0.0108536 -0.000315565)
(0.0123134 -0.00909117 -0.00124145)
(-0.00891456 -0.0177784 0.000660522)
(-0.00865129 -0.0209684 0.00189819)
(0.00162791 -0.0212778 0.000729685)
(0.0222333 -0.0166729 0.00175149)
(0.00699249 -0.0368325 -0.00271344)
(0.0575173 -0.0370292 -0.00703768)
(0.0241067 -0.0141951 0.000655021)
(0.0162085 0.00918994 -0.000650981)
(0.0196952 -0.0102738 -0.000645338)
(0.000745721 -0.00808285 -0.000899757)
(-0.000496106 -0.00758649 4.03305e-05)
(0.00222556 0.00932418 0.00280612)
(-0.00367369 0.0226834 0.00107205)
(0.00315087 0.0113978 0.000210263)
(0.0166999 0.0209176 -0.000309122)
(0.0191306 0.0251235 0.000458234)
(0.0191306 0.0251235 0.000458234)
(0.0191306 0.0251235 0.000458234)
(0.0191306 0.0251235 0.000458234)
(-0.0219246 -0.00154069 -0.00135848)
(-0.00992575 0.00391336 -0.00143392)
(-0.0617471 0.00113592 0.00112847)
(0.00351464 -0.00949531 0.00245455)
(-0.00712121 0.00116173 -0.000735327)
(3.06826e-05 0.00114035 0.00034411)
(-0.00898487 -0.00542379 -2.35359e-05)
(-0.0451713 0.012232 -0.00477912)
(-0.0670824 -0.000842786 0.00612236)
(-0.043202 0.000268006 0.0101852)
(-0.0615758 0.00501098 -0.0285198)
(0.00413678 0.000759531 8.89229e-06)
(0.00294078 0.00201923 0.000190289)
(0.00445881 -0.000646837 7.918e-05)
(0.00397598 -0.00100975 -0.000138977)
(0.00615927 0.00171404 -8.47323e-06)
(0.000330635 -0.00105742 2.40884e-05)
(0.000446568 -0.000506677 -2.18891e-05)
(0.000994512 -0.000150517 8.59108e-07)
(0.000928742 -0.000433833 7.05907e-06)
(-0.000219439 -0.000490417 -3.56402e-05)
(0.000405026 -0.00100494 4.96087e-07)
(0.00113237 -0.0017951 7.64303e-05)
(0.000657059 -0.00115064 1.35628e-05)
(0.00130824 0.000267054 9.22572e-05)
(0.00195901 0.00031292 8.72432e-05)
(0.00229743 -0.000121727 0.000124038)
(0.00159618 0.000118655 -2.85942e-06)
(0.0016905 8.76148e-05 9.31009e-05)
(0.000383583 -5.73734e-05 -2.27905e-06)
(0.000552979 -6.52454e-05 -3.65798e-06)
(0.000547119 -5.6652e-05 -5.20377e-07)
(0.000898715 -0.000117207 -1.59557e-06)
(0.000409103 -3.75719e-05 -2.9953e-06)
(0.000695813 -0.000101884 7.87573e-08)
(0.000754673 -5.11222e-05 -3.13486e-06)
(0.000524566 -9.03692e-05 -3.60023e-07)
(0.00086902 -4.86346e-05 -1.15831e-06)
(0.000960339 -3.38996e-05 -1.67304e-06)