/*--------------------------------*- C++ -*----------------------------------*\
| =========                 |                                                 |
| \\      /  F ield         | OpenFOAM: The Open Source CFD Toolbox           |
|  \\    /   O peration     | Version:  5.0                                   |
|   \\  /    A nd           | Web:      www.OpenFOAM.org                      |
|    \\/     M anipulation  |                                                 |
\*---------------------------------------------------------------------------*/
FoamFile
{
    version     2.0;
    format      ascii;
    class       volScalarField;
    location    "4.2";
    object      alpha.water;
}
// * * * * * * * * * * * * * * * * * * * * * * * * * * * * * * * * * * * * * //

dimensions      [0 0 0 0 0 0 0];

internalField   nonuniform List<scalar> 
7877
(
1.05462
1.00772
1.03107
0.983887
1.00796
1.00409
0.47793
-1.18285e-17
-8.11516e-19
2.6488e-23
2.18015e-18
1.18286e-19
3.65718e-22
7.25507e-26
7.25502e-30
2.45062e-33
1.01333e-36
4.44645e-40
1.9976e-43
8.02049e-47
4.32462e-50
1.77922e-53
7.54631e-57
2.72049e-60
1.47912e-63
4.18456e-66
7.22773e-70
1.397e-73
6.78856e-76
1.25576e-79
1.07009e-82
1.60784e-86
4.17342e-89
1.09296e-91
4.23931e-95
3.53241e-98
1.43518e-101
4.81528e-104
9.31557e-108
8.39728e-112
7.58573e-115
2.73637e-117
2.68618e-120
7.9829e-123
1.27432e-126
1.12739e-129
1.52556e-133
2.72357e-137
8.80588e-139
5.48401e-142
1.06152
1.03001
1.05662
1.08359
1.01443
1.02049
0.802407
-1.43986e-18
-2.2464e-19
1.51354e-16
7.2964e-18
1.83854e-20
4.23799e-23
3.04079e-26
3.69604e-30
8.86758e-34
3.60342e-37
1.54781e-40
6.728e-44
2.80894e-47
1.22079e-50
5.20448e-54
2.53929e-57
1.26461e-60
5.04767e-64
2.02065e-67
1.76554e-70
4.52251e-74
3.27982e-77
1.58299e-80
1.05013e-83
2.06753e-86
3.06302e-90
7.63495e-93
1.56018e-96
1.4801e-99
7.66991e-103
6.18598e-107
2.25593e-108
2.23945e-111
2.68737e-115
2.45205e-118
3.30574e-122
7.09546e-126
1.92093e-128
9.37486e-132
1.43564e-135
3.25278e-139
1.39371e-142
2.10661e-143
1.02291
1.02337
1.05876
1.00194
0.971805
0.997855
1.00055
-1.23259e-15
-1.05157e-18
-6.31269e-22
1.89454e-17
2.05639e-18
1.22306e-20
2.19598e-24
1.24025e-28
4.06594e-32
1.75594e-35
7.65041e-39
3.39249e-42
1.36024e-45
6.27065e-49
2.56045e-52
1.37224e-55
6.21926e-59
2.5073e-62
4.48958e-65
2.88179e-68
2.08366e-72
1.4097e-74
1.47565e-77
7.9871e-82
1.37625e-85
1.54416e-86
2.27225e-89
1.90818e-93
4.65782e-97
2.97381e-100
3.14355e-104
4.91594e-106
2.29813e-109
9.48931e-113
4.7939e-116
6.36586e-119
5.81942e-123
5.98238e-126
3.34801e-130
4.88221e-132
6.85154e-135
3.35934e-139
3.24842e-143
1.03794
1.02476
1.01923
1.03117
1.02731
1
1
0.016156
-2.93268e-19
-3.72855e-20
4.96592e-18
8.92352e-19
1.75412e-20
2.6568e-23
2.79862e-27
4.08588e-31
1.56149e-34
7.24402e-38
2.84014e-41
1.19296e-44
5.42577e-48
2.15922e-51
2.24868e-54
8.8457e-58
5.20545e-61
1.99472e-64
3.91213e-68
2.52673e-70
9.1286e-74
9.04541e-78
5.6273e-80
4.54503e-83
9.61322e-87
2.17515e-90
7.79893e-93
1.8899e-96
6.33428e-100
1.21192e-102
5.57978e-105
2.20501e-108
3.87903e-112
9.7968e-115
3.09286e-118
3.16688e-121
4.65783e-124
1.72483e-127
1.02642e-131
1.23205e-134
8.60824e-138
2.39059e-140
1.02827
0.990245
1.00184
1.00495
0.946699
0.99954
1.00203
0.52333
-3.09157e-17
-2.52075e-18
1.50698e-37
4.63726e-18
2.03889e-19
4.25328e-22
5.55097e-26
6.89698e-30
2.32114e-33
1.00162e-36
4.30556e-40
2.23061e-43
7.68366e-47
5.82731e-50
1.51451e-53
9.122e-57
2.78173e-60
3.84913e-63
1.09659e-66
1.49841e-69
4.26571e-72
1.99644e-75
1.85576e-78
1.72787e-82
8.88022e-85
1.35967e-88
1.77604e-92
1.24906e-95
1.09495e-97
2.89067e-101
2.00143e-105
2.30584e-107
2.08217e-111
2.70548e-114
8.20507e-117
1.02068e-119
4.10268e-123
7.0728e-127
7.30797e-129
3.29884e-132
2.87091e-135
4.30567e-139
1.04419
1.27117
0.978259
0.972533
1.00002
0.985849
1.00196
0.673753
-3.46413e-17
-2.14134e-19
-1.00974e-31
3.64751e-18
1.61034e-19
3.37663e-22
4.39924e-26
5.14255e-30
1.83794e-33
1.25505e-36
4.26495e-40
3.41357e-43
8.75037e-47
4.35977e-50
1.35933e-53
3.06604e-56
9.02298e-60
5.59727e-62
1.38977e-65
1.30989e-69
8.61361e-72
1.44864e-74
1.91386e-77
1.68109e-81
2.56327e-85
2.77565e-88
9.41196e-91
1.13688e-94
5.68715e-98
1.55388e-100
1.29419e-104
6.15858e-107
4.08015e-110
7.981e-113
4.30694e-116
1.42999e-119
2.57888e-123
4.38637e-126
3.60858e-130
7.60055e-134
3.07989e-137
7.5306e-141
1.02748
1.04236
0.959836
0.980127
0.982063
1.00855
1.0042
0.332586
-1.96421e-18
-5.93097e-21
4.64934e-18
8.38242e-19
1.61987e-20
2.40441e-23
2.48633e-27
3.66538e-31
1.40233e-34
6.02934e-38
2.54444e-41
1.1129e-44
8.71428e-48
2.14887e-51
1.0869e-54
3.72901e-58
3.85504e-61
7.64333e-65
2.79212e-68
4.95487e-71
3.42891e-73
6.09421e-77
4.89275e-81
2.35046e-83
2.70765e-87
1.9806e-90
5.82852e-94
1.35049e-96
3.98546e-100
2.12484e-102
1.27305e-105
2.01016e-108
1.68664e-112
3.58473e-115
1.05142e-118
5.09976e-122
4.46298e-125
8.97934e-129
1.05781e-130
3.173e-134
1.84307e-138
4.04156e-140
1.05606
1.02663
1.01598
0.889367
1.02114
0.998717
1.00222
-1.97123e-15
-4.45641e-19
4.52151e-22
1.83918e-17
1.9293e-18
1.20337e-20
2.46804e-24
1.39679e-28
4.44982e-32
1.8655e-35
7.91367e-39
3.59758e-42
1.91311e-45
6.54193e-49
4.59335e-52
2.25637e-55
4.84101e-59
1.8375e-62
1.19537e-64
8.90076e-68
6.10174e-72
1.20844e-75
1.5669e-77
5.1266e-81
5.98951e-84
4.16492e-87
8.37664e-91
6.71248e-94
2.71508e-96
3.20182e-100
2.36635e-103
1.91081e-106
8.96085e-110
2.61086e-113
1.26022e-115
5.02886e-119
3.95084e-122
1.34152e-125
6.21391e-130
1.72387e-133
6.68615e-137
2.63276e-140
1.31807e-143
1.04321
1.01677
1.00209
0.965633
0.999988
0.994638
1.00007
-9.12671e-24
-7.28878e-20
1.30533e-16
9.58304e-18
4.03462e-20
4.20014e-23
2.88053e-26
4.93559e-30
1.19729e-33
4.88129e-37
2.12603e-40
9.65098e-44
4.0011e-47
1.67815e-50
7.57054e-54
3.23853e-57
1.37153e-60
2.07376e-63
2.90775e-67
1.07092e-70
4.69993e-74
2.30193e-77
8.90606e-81
1.60904e-82
3.07973e-86
7.81656e-90
6.16003e-94
5.18895e-96
2.24607e-99
1.37473e-102
1.35094e-106
2.49382e-110
5.11852e-112
5.47246e-115
8.91855e-118
2.87319e-121
4.5278e-125
3.22411e-128
3.31481e-131
5.81458e-134
7.16629e-137
1.11013e-139
6.11832e-144
1.03255
1.00779
1.00976
1.00565
1.0098
1.00465
0.823333
-2.56314e-17
-5.11102e-18
-8.44905e-37
1.87173e-18
1.45924e-19
6.78977e-22
1.60281e-25
1.34978e-29
4.29395e-33
1.78722e-36
7.64257e-40
3.27732e-43
1.47315e-46
5.96221e-50
2.52365e-53
1.06546e-56
4.46526e-60
2.15061e-63
8.20606e-67
4.62593e-70
2.01277e-73
5.47913e-76
1.80775e-79
6.70974e-83
1.42498e-85
8.07729e-89
5.5707e-92
5.77037e-96
9.80987e-99
1.86106e-101
2.83415e-105
1.70259e-107
4.25536e-111
3.71544e-115
1.13623e-118
2.21143e-120
1.17292e-123
2.8032e-127
4.15232e-130
8.14584e-134
1.30622e-136
1.38608e-140
1.02129e-143
1.05529
1.02136
1.03187
0.983579
0.998822
1.00113
0.479941
2.06012e-12
9.03174e-15
1.23329e-17
5.66678e-18
6.87864e-19
1.15872e-20
1.9398e-23
4.31742e-27
1.18969e-30
8.17579e-34
6.17977e-37
4.51231e-40
3.25236e-43
2.34291e-46
1.68541e-49
1.20912e-52
8.65718e-56
6.18346e-59
4.40516e-62
3.13347e-65
2.22398e-68
1.57393e-71
1.11147e-74
7.82758e-78
5.4986e-81
3.8568e-84
2.69957e-87
1.88616e-90
1.31504e-93
9.14104e-97
6.33524e-100
4.3837e-103
3.02911e-106
2.08834e-109
1.43679e-112
9.86111e-116
6.75181e-119
4.61399e-122
3.14477e-125
2.13829e-128
1.45233e-131
9.84032e-135
3.93583e-138
1.0878
1.02891
1.03773
1.02117
1.02217
1.01873
0.800859
2.33342e-12
8.37607e-15
8.49198e-15
8.91126e-16
4.9386e-18
1.51705e-21
4.97864e-25
1.86806e-28
1.02889e-31
7.29143e-35
5.29641e-38
3.7808e-41
2.68627e-44
1.92957e-47
1.36761e-50
9.92023e-54
7.08205e-57
4.94478e-60
3.50285e-63
2.49819e-66
1.76418e-69
1.23601e-72
8.70459e-76
6.1258e-79
4.28983e-82
3.02965e-85
2.12637e-88
1.45817e-91
1.01245e-94
7.02696e-98
4.86336e-101
3.35539e-104
2.30973e-107
1.5883e-110
1.08891e-113
7.46674e-117
5.10661e-120
3.47441e-123
2.36368e-126
1.61714e-129
1.08839e-132
7.35291e-136
2.9441e-139
1.03784
1.04262
1.10342
0.941928
0.985438
0.998495
1.00084
8.41694e-09
3.56504e-15
3.31156e-16
3.27908e-16
6.64249e-17
1.43567e-18
1.72232e-21
1.68641e-25
5.17268e-29
3.86828e-32
2.79131e-35
1.96027e-38
1.37284e-41
9.60756e-45
6.71163e-48
4.67745e-51
3.25496e-54
2.2588e-57
1.56423e-60
1.08158e-63
7.45861e-67
5.13253e-70
3.53074e-73
2.42398e-76
1.66088e-79
1.1366e-82
7.75675e-86
5.27523e-89
3.58505e-92
2.43217e-95
1.64621e-98
1.11253e-101
7.49954e-105
5.04372e-108
3.38678e-111
2.27033e-114
1.51936e-117
1.01549e-120
6.77449e-124
4.5084e-127
2.99391e-130
1.98369e-133
7.78711e-137
1.00675
1.0343
0.967797
0.824332
0.964157
0.989053
0.999972
0.0234368
2.40607e-13
3.02583e-16
3.37557e-17
8.18898e-18
4.13701e-19
2.94369e-21
1.81438e-24
2.5658e-28
1.24248e-31
9.33883e-35
6.81708e-38
4.85874e-41
3.45552e-44
2.45333e-47
1.73656e-50
1.22962e-53
8.66298e-57
6.09581e-60
4.28271e-63
3.00368e-66
2.10551e-69
1.46652e-72
1.02076e-75
7.09333e-79
4.91512e-82
3.3992e-85
2.34837e-88
1.6175e-91
1.11215e-94
7.63178e-98
5.22131e-101
3.56575e-104
2.4316e-107
1.65918e-110
1.12613e-113
7.63701e-117
5.15138e-120
3.4747e-123
2.33867e-126
1.57175e-129
1.0538e-132
4.18047e-136
1.01094
1.01847
1.00331
0.986263
0.994184
0.997843
1.00236
0.524662
8.73936e-12
1.01609e-14
9.51761e-17
8.73917e-17
9.32567e-18
1.08504e-19
1.03624e-22
1.46285e-26
5.27306e-30
3.91048e-33
2.87054e-36
2.04328e-39
1.44892e-42
1.02654e-45
7.25355e-49
5.11796e-52
3.60223e-55
2.529e-58
1.77305e-61
1.24024e-64
8.65123e-68
6.02264e-71
4.1844e-74
2.89947e-77
2.00643e-80
1.38471e-83
9.53459e-87
6.55595e-90
4.49691e-93
3.07622e-96
2.10097e-99
1.43259e-102
9.74987e-106
6.62445e-109
4.48903e-112
3.03434e-115
2.04787e-118
1.37942e-121
9.26872e-125
6.21818e-128
4.16316e-131
1.64803e-134
0.983439
1.05445
0.956676
1.01599
1.00189
0.997457
1.00227
0.673462
7.88496e-12
9.19618e-15
1.79323e-16
1.72508e-16
1.94696e-17
2.47868e-19
2.58438e-22
3.63555e-26
1.24409e-29
9.20398e-33
6.75397e-36
4.80162e-39
3.3986e-42
2.40466e-45
1.69745e-48
1.19569e-51
8.402e-55
5.88882e-58
4.12355e-61
2.8808e-64
2.00742e-67
1.3962e-70
9.68153e-74
6.69557e-77
4.62783e-80
3.19178e-83
2.19494e-86
1.50697e-89
1.03232e-92
7.0563e-96
4.81636e-99
3.28007e-102
2.22881e-105
1.51215e-108
1.02356e-111
6.90997e-115
4.65681e-118
3.13125e-121
2.10036e-124
1.40764e-127
9.42059e-131
3.72882e-134
1.05352
0.999999
0.933877
1.0853
0.979763
1.01156
1.00469
0.347192
1.53531e-13
2.29025e-16
1.90573e-17
5.68357e-18
2.70079e-19
1.8185e-21
1.11063e-24
1.65947e-28
8.08936e-32
6.03044e-35
4.3679e-38
3.10891e-41
2.23717e-44
1.58633e-47
1.11296e-50
7.90586e-54
5.61005e-57
3.90291e-60
2.73899e-63
1.92186e-66
1.34784e-69
9.66872e-73
6.56113e-76
4.54908e-79
3.16032e-82
2.1887e-85
1.52565e-88
1.04476e-91
7.17856e-95
4.956e-98
3.40217e-101
2.31088e-104
1.57514e-107
1.07339e-110
7.29408e-114
4.95149e-117
3.34345e-120
2.25602e-123
1.54425e-126
1.02483e-129
6.88099e-133
2.98228e-136
1.06545
1.01056
1.00507
0.998699
1.00026
1.02765
1.00239
1.01392e-06
4.31819e-15
4.062e-16
4.02007e-16
8.12226e-17
1.9111e-18
2.67406e-21
2.87703e-25
8.03206e-29
5.96406e-32
4.31839e-35
3.03643e-38
2.12846e-41
1.49118e-44
1.04248e-47
7.2703e-51
5.06247e-54
3.51742e-57
2.43824e-60
1.68697e-63
1.16449e-66
8.01743e-70
5.51896e-73
3.7928e-76
2.60039e-79
1.77921e-82
1.21438e-85
8.26966e-89
5.62468e-92
3.81735e-95
2.58494e-98
1.74864e-101
1.17995e-104
7.94441e-108
5.33924e-111
3.58157e-114
2.39704e-117
1.60207e-120
1.06842e-123
7.10582e-127
4.71992e-130
3.13233e-133
1.23132e-136
1.04258
1.01468
1.00121
0.99024
1.00305
0.967977
1.00027
2.63711e-10
6.64023e-15
7.01831e-15
1.06139e-15
1.43416e-17
9.61733e-21
1.1412e-24
4.02009e-28
2.79344e-31
1.95105e-34
1.32164e-37
8.97689e-41
6.13461e-44
4.25938e-47
2.95683e-50
2.05252e-53
1.41101e-56
1.02374e-59
6.90727e-63
4.64912e-66
3.20421e-69
2.2194e-72
1.50526e-75
1.06373e-78
7.07759e-82
4.8736e-85
3.26638e-88
2.21141e-91
1.50874e-94
1.0193e-97
6.87419e-101
4.62648e-104
3.11504e-107
2.09647e-110
1.40992e-113
9.50934e-117
6.2967e-120
4.22456e-123
2.87883e-126
1.87522e-129
1.23591e-132
8.19272e-136
3.25594e-139
1.04967
1.03005
1.03724
1.02441
0.826956
1.00429
0.822929
2.93734e-12
1.80028e-14
1.73422e-17
4.13289e-18
3.173e-19
3.96476e-21
5.66246e-24
1.22771e-27
3.90837e-31
2.76475e-34
2.09759e-37
1.53906e-40
1.11538e-43
8.07408e-47
5.83461e-50
4.20497e-53
3.02538e-56
2.17143e-59
1.55403e-62
1.11035e-65
7.91564e-69
5.63056e-72
3.99507e-75
2.8274e-78
1.99548e-81
1.40483e-84
9.87092e-88
6.91946e-91
4.84338e-94
3.38107e-97
2.35362e-100
1.63484e-103
1.13367e-106
7.84304e-110
5.41473e-113
3.72917e-116
2.56221e-119
1.757e-122
1.20183e-125
8.2026e-129
5.59159e-132
3.80056e-135
1.52395e-138
1.04835
0.991916
0.984564
1.00661
0.981842
1.00027
0.479614
-1.11979e-17
-7.83721e-19
4.16257e-23
1.05061e-18
6.0161e-20
1.97462e-22
4.26886e-26
4.29484e-30
1.48951e-33
5.87453e-37
2.60739e-40
1.24588e-43
7.97723e-47
2.39946e-50
1.16424e-53
6.04974e-57
1.81946e-60
1.1326e-63
4.19352e-66
6.4668e-70
2.04381e-73
2.28384e-76
4.46983e-80
1.34207e-82
7.34412e-86
6.63045e-89
8.92848e-92
3.71129e-95
1.84587e-98
2.0847e-101
1.22087e-104
1.07528e-108
1.67808e-110
7.32733e-114
6.08319e-118
4.11719e-120
5.63659e-124
2.9891e-127
1.01948e-129
2.23412e-133
2.26528e-136
3.03748e-139
5.31866e-142
1.02471
1.04521
1.04086
1.06465
1.00124
1.01506
0.800384
8.322e-13
-2.23798e-19
1.48893e-16
7.63206e-18
2.16225e-20
5.12929e-23
3.76527e-26
4.61193e-30
1.09116e-33
4.42724e-37
1.90118e-40
8.16181e-44
3.44901e-47
1.537e-50
6.37365e-54
2.92308e-57
1.27683e-60
5.82658e-64
2.11246e-67
1.83798e-70
4.99183e-74
1.2642e-76
2.50879e-80
3.51747e-83
3.36899e-86
2.84946e-89
6.0746e-93
3.6932e-96
1.88976e-99
3.50279e-103
1.21292e-106
6.45916e-108
9.10674e-111
1.10449e-114
1.6078e-118
7.92341e-122
5.51777e-124
1.19893e-127
2.23276e-131
3.70088e-134
3.73368e-138
8.44083e-142
5.08417e-145
1.03712
1.05874
0.945739
0.949013
0.950713
1
1.00084
4.73829e-09
-9.97224e-19
-6.82235e-22
1.88994e-17
2.05076e-18
1.22257e-20
2.20912e-24
1.2547e-28
4.11223e-32
1.7627e-35
8.12348e-39
3.57381e-42
1.30067e-45
7.36872e-49
2.49015e-52
1.77393e-55
1.06437e-58
6.66746e-62
2.07262e-65
3.65438e-68
3.27373e-72
9.83654e-76
1.38132e-77
2.55658e-81
1.77464e-85
4.75881e-88
1.86271e-90
4.67424e-94
3.66043e-97
2.58466e-100
8.8734e-104
7.11111e-107
2.01784e-109
1.85162e-112
2.81444e-116
6.99821e-120
1.63493e-122
7.59739e-126
4.79757e-130
9.01939e-132
7.84137e-135
1.64175e-138
3.99195e-141
1.04465
1.00039
0.978931
1.00738
1.01931
0.984341
1.00008
0.0226232
-2.93251e-19
-4.39183e-20
5.10434e-18
9.22171e-19
1.81713e-20
2.75569e-23
2.89913e-27
4.22526e-31
1.61582e-34
6.92579e-38
2.92102e-41
1.25029e-44
5.293e-48
2.18668e-51
1.03267e-54
9.68017e-58
2.63167e-61
1.40598e-64
3.51707e-68
4.35386e-70
3.08232e-73
2.18293e-77
4.91218e-80
4.55028e-83
9.19572e-87
1.69341e-90
4.47828e-93
1.0136e-96
1.02136e-99
1.33828e-102
8.40809e-107
1.61257e-108
4.28416e-112
6.74123e-115
8.0263e-118
4.92008e-121
4.18966e-124
1.68441e-127
1.19293e-130
7.6654e-135
1.75494e-138
6.85636e-142
1.01664
1.03833
1.00178
1.00888
1.00026
1.0033
1.00234
0.524486
-2.83923e-17
-2.19134e-18
1.00975e-31
4.80217e-18
2.12187e-19
4.459e-22
5.84473e-26
6.88301e-30
2.40982e-33
1.02794e-36
5.00907e-40
1.98434e-43
7.75325e-47
3.58054e-50
1.63196e-53
7.3763e-57
8.46284e-60
1.19444e-62
1.07406e-66
2.67914e-70
3.75462e-73
1.32031e-75
1.40347e-78
9.85213e-83
5.00034e-85
1.29168e-88
2.26155e-91
1.64149e-95
1.05848e-97
2.72853e-101
2.04739e-103
5.5324e-107
5.91744e-111
3.1352e-113
1.33677e-116
4.33163e-120
3.11326e-123
4.83876e-127
1.10221e-128
5.28201e-132
1.84288e-135
4.06768e-138
1.03949
1.05779
1
1.02357
0.996776
0.99544
1.0022
0.673222
-3.05759e-17
-1.9538e-19
4.21625e-37
3.73502e-18
1.6518e-19
3.47401e-22
4.5267e-26
5.36498e-30
1.897e-33
8.36688e-37
3.59012e-40
6.96897e-43
1.16886e-46
1.02908e-49
3.57333e-53
1.00274e-56
3.77959e-60
1.21376e-63
1.25277e-66
2.78385e-70
9.0239e-74
6.0032e-75
1.286e-77
1.367e-80
1.39352e-84
6.52911e-88
7.75225e-92
1.45061e-94
5.54409e-98
1.71862e-100
1.63249e-104
2.21553e-107
2.21831e-110
6.69664e-114
3.03837e-116
1.70893e-119
5.30987e-123
3.43707e-127
1.00133e-130
5.45737e-132
3.28167e-135
1.25234e-139
0.989732
1
0.984636
1.0936
0.937032
1.00618
1.00408
0.345507
-1.38963e-18
-5.26195e-21
4.48189e-18
8.1432e-19
1.56082e-20
2.31449e-23
2.40125e-27
3.54492e-31
1.35613e-34
6.00014e-38
2.49252e-41
1.07351e-44
9.3311e-48
2.33704e-51
9.2743e-55
5.03958e-58
3.09782e-61
2.08242e-64
3.91524e-68
1.44004e-71
2.56646e-73
8.63921e-77
5.5307e-81
1.84185e-84
6.46409e-88
1.67242e-90
4.54994e-93
1.41518e-96
2.15128e-100
1.50126e-102
2.55699e-106
4.52323e-110
5.77145e-113
1.09885e-115
1.20201e-118
6.90741e-122
1.97342e-125
1.60523e-129
4.34048e-133
1.70532e-136
1.21784e-139
7.65598e-140
1.08575
1.0103
0.993691
1.00276
1.0325
1.02877
1.00239
7.91609e-07
-4.51211e-19
4.80047e-22
1.84557e-17
1.94559e-18
1.22406e-20
2.53661e-24
1.43624e-28
4.55073e-32
1.91295e-35
8.04943e-39
3.83613e-42
1.54545e-45
6.75695e-49
3.69443e-52
3.82392e-55
5.31454e-59
7.44754e-62
1.10486e-65
7.27103e-68
7.5697e-71
4.11616e-75
1.76334e-78
8.2379e-82
9.52737e-85
6.58948e-87
1.67059e-90
2.51574e-94
5.01316e-97
2.95961e-100
1.03386e-103
2.08902e-106
1.3866e-108
2.03897e-112
2.52354e-115
1.22372e-118
2.79319e-122
1.36806e-125
8.69379e-130
2.68294e-133
1.04642e-136
4.12092e-140
1.25077e-143
1.10074
1.02584
1.00574
0.991369
1.00072
0.966434
1.00019
1.22973e-10
-6.95663e-20
1.40129e-16
1.05607e-17
4.51036e-20
3.9661e-23
2.51199e-26
4.35878e-30
1.08792e-33
4.44928e-37
1.90573e-40
8.41402e-44
3.69302e-47
1.51928e-50
7.22034e-54
2.81314e-57
1.25366e-60
5.28139e-64
6.02056e-67
1.10691e-70
4.17554e-74
1.67202e-77
8.09812e-80
1.05377e-82
1.30613e-86
2.04012e-89
1.6331e-92
6.75276e-96
5.40526e-99
1.47809e-102
1.11264e-105
5.81023e-110
5.68111e-112
6.55542e-116
7.08536e-120
1.44397e-121
2.12417e-124
3.74532e-128
1.51182e-131
1.89698e-134
2.11751e-137
1.24974e-139
1.74636e-143
1.04273
1.05993
1.02149
0.982129
1.00084
1.00222
0.823541
-2.40802e-17
-5.05582e-18
-2.01949e-31
1.36972e-18
1.05689e-19
4.77557e-22
1.10877e-25
9.49112e-30
3.03091e-33
1.26443e-36
5.46087e-40
2.32114e-43
9.8232e-47
4.24561e-50
1.84687e-53
7.57121e-57
3.22814e-60
1.80343e-63
6.72724e-67
2.96405e-70
1.17968e-73
2.35913e-76
1.28958e-79
1.50795e-83
1.69507e-85
6.97862e-89
5.95402e-93
1.84727e-96
1.08328e-98
5.78055e-102
7.97052e-106
1.72347e-107
1.07384e-110
2.51746e-114
4.94248e-117
2.02992e-120
2.70887e-124
4.30451e-127
5.8737e-130
2.85093e-133
2.18543e-136
1.79405e-140
2.9411e-144
1.00009
1.02865
1.00211
1.00052
1.00006
1.02769
1.00268
1.0007
0.983426
1.00127
1.0173
1.00136
0.987434
1.00184
1.00151
1.01757
1.00223
0.998143
1.0019
1.01295
1.00234
1.0021
0.998496
1.00508
0.980147
1.0024
0.999378
1.00409
1.00406
1
1.00216
0.994741
1.00395
0.979496
1.00152
1.00148
1.02976
1.00598
0.984536
1.00114
1.0318
1.00609
1.0046
0.999242
1.00398
1.01053
1.00645
1.00026
1.00399
1.0047
1
1.00114
1.02702
1.00497
1
1.00087
1.00025
1.00155
1
0.960798
1.00015
1.00139
1
1.00071
0.997947
1.00007
1.00463
1.00063
0.996757
1.00005
1.00008
1.02749
1.00282
1.00021
1.00001
1.02714
1.00215
1.00165
1.00355
1.00211
1.01484
1.00156
1.02778
1.00183
1.0023
1.00806
1.0028
1
1.00191
1.00623
1.00245
1.00278
1
1.00371
0.973071
1.0025
1.01072
1.00384
1.00433
0.985058
1.00179
1.0005
1.00389
0.987662
1.0014
1.0013
1.02521
1.00627
0.996489
1.00113
1.00082
1.00614
1.00851
1.00492
1.00449
1.00909
1.00865
1.02876
1.00458
1.0052
1
1.00103
1.03004
1.00517
0.992873
1.00094
1.00024
1.00141
1
0.969239
1.00007
1.00061
1
1.00101
0.996798
1.00024
1.00317
1.00073
0.998315
1.00006
1.00014
1.02676
1.00216
1.00003
1.0001
1.02653
1.00139
1.00173
1.02754
1.0021
1.01449
1.00101
1.0087
1.00176
1.00224
1.00665
1.00282
1.00068
1.0017
0.988154
1.00216
1.00289
1.0029
1.00355
0.99195
1.00223
1.00058
1.00362
1.00424
0.983624
1.00181
1.00615
1.00393
0.982966
1.002
1.0013
1.00064
1.00647
0.994841
1.00148
1.00872
1.00614
1.00833
1.02217
1.00437
1.0077
1.00796
1.01786
1.00402
1.00522
0.992195
1.00107
1.02726
1.0052
0.999384
1.0011
1.00012
1.00044
1
1
1.00021
1.00113
1
1.00093
0.999469
1.00026
1.00504
1.00037
0.999375
1.00006
0.98725
1.00087
1.03339
1.00555
0.991732
1.01093
1.03076
1.00702
1.00578
1.01571
1.00063
1.01625
1.00747
1.0051
-1.11994e-16
0.675025
-5.14406e-16
0.479944
3.24337e-09
0.67545
3.24337e-09
1.01715
1.02647
0.936006
1.01634
1.00276
1.06147
0.866314
1.01383
1.01086
1.02674
1.01995
1.0104
1.01639
1.01363
-1.14986e-16
1.00011
-1.09273e-14
0.801728
6.85866e-10
1.00007
5.24024e-08
0.987065
1.03595
1.01107
0.991693
0.988151
1.02821
1.03124
1.00698
1.00207
1.03669
1.00067
1.00153
1.03209
1.00349
-2.14264e-18
1.00122
0.310851
1.00124
3.93074e-06
1.0011
0.320918
0.934114
0.987939
1.01255
1.01567
0.560428
0.961834
0.963819
1.00008
1.00181
1.02617
1.01492
1.00241
1.03347
1.00014
0.61593
1.00121
0.998144
1.00026
0.616249
1.00135
0.990143
0.992286
1
0.940602
0.989157
1.01101
1
0.934579
0.996707
1.00121
0.96798
0.995047
1.0011
0.973555
1
1
1.00197
1.00035
1.0025
1.00004
1.00232
1.00068
0.982443
1.014
0.994308
1.00076
0.952929
1.00849
0.965734
1.00088
0.996741
0.995952
0.993058
0.998829
0.999546
1.00088
1.00044
1.00379
1
1.00253
1.00063
1.0042
1.00006
0.982542
0.987177
1.03425
0.976456
0.947627
1.01866
1.03949
1.00497
1.01769
0.993864
1.00814
1.01731
0.985507
1.0056
0.993776
1.00219
0.625252
1.00484
0.986279
1.00253
0.624862
0.997211
0.992326
0.984227
1.00997
1.00713
0.944479
0.963142
1.01138
1.00367
1.00915
1.01201
1.00372
1.00867
1.0118
0.356063
1.00033
7.01341e-05
1.00254
0.367818
1.00047
0.000230306
0.883644
1.01381
0.999822
0.998255
0.948951
1.02543
0.999972
0.99902
1
0.993634
0.996074
1
0.972969
0.999212
-3.15297e-22
0.936193
-9.57501e-23
1.00033
9.97766e-08
0.933069
7.14702e-10
1.00587
0.938933
0.96633
0.982829
1.00742
1.09623
1.07402
1.00259
1.0078
1.00057
1.00465
1.00782
1.00106
1.00318
-1.09382e-19
0.542941
-1.13559e-15
0.824437
7.04501e-09
0.544211
7.045e-09
0.993536
1.01809
1.03075
1
0.989291
1.01847
1.03063
1.00584
1.00361
1.01206
1.00082
1.00619
1.01135
1.00241
9.54144e-09
0.674885
9.54144e-09
0.479988
9.54144e-09
0.675971
9.54144e-09
1.04038
1.05978
0.895719
1.00684
1.02322
1.04595
1
1.00436
1.01038
0.997069
1.01868
1.00527
1.01071
0.996777
1.32605e-09
1.00016
8.38609e-08
0.800634
1.31634e-09
1.00006
8.39798e-08
0.85148
1.04532
1.04272
0.968144
0.992716
1.00141
1.00248
0.997354
1.00025
1.02622
1
1.00105
1.00084
1.01814
5.42104e-06
1.00147
0.320576
1.00134
5.41459e-06
1.00107
0.320185
0.966417
1.064
1.05825
1.03937
0.982694
1.00587
1.04379
0.999793
1.00231
1.0354
0.975026
0.999957
1.00199
1.00225
0.616516
1.00084
0.990095
1.00022
0.616209
1.00174
0.989874
1.01385
0.996572
0.868639
0.998708
1.00176
1.00034
0.875838
0.999418
1.00107
0.969666
1.00009
0.99547
1.00124
0.970417
1.0002
1.00247
1.00075
1.00276
1.00008
1.00245
1.00052
0.989561
1.01859
0.975278
0.989481
0.988852
1.01065
0.971825
1.00226
0.999419
1.00289
1
1.00219
0.997414
1.0028
1.00086
1.00427
1.00007
1.00263
1.00057
1.00416
1.00001
0.957755
1.02689
1.03774
0.959549
0.937041
1.07756
1.03578
1.00632
1.01783
0.978443
1.01053
1.00705
1.01777
0.970354
0.985388
1.00242
0.624857
1.0046
0.98556
1.00256
0.624587
1.01338
0.870307
0.967164
1.00016
1.03025
0.870946
0.971211
1.01067
1.00813
1.01251
1.02651
1.01077
1.00869
1.00949
0.368126
1.00085
0.000291043
1.00255
0.368542
1.00052
0.000278248
0.931975
1.1113
1.00439
1.00015
0.728478
1.06655
0.999037
0.999852
0.999046
0.959217
0.943803
0.996173
1
0.953659
1.61394e-07
0.932991
1.29123e-09
1.00035
1.61462e-07
0.933598
1.12813e-09
1.00425
0.874733
1.05773
0.990205
1.00555
0.994252
1
1.00082
1.00734
1.00032
1.00377
1.00134
1.00773
1.00007
1.90972e-08
0.543903
1.90972e-08
0.823778
1.90972e-08
0.544185
1.90972e-08
0.999396
1.0137
1.03082
0.997996
0.998494
1.0097
1.03137
1.00188
1.00066
1.00737
1.00004
1.00417
1.00106
1.00078
3.16664e-09
0.676176
3.16664e-09
0.477585
-1.04941e-16
0.676694
-4.77169e-16
1.01597
1.03982
0.999823
0.99315
1.01364
0.997657
0.968044
1.00067
1.01055
0.985625
1.01519
1.00096
1.01025
0.984893
6.77551e-10
1.00013
5.26222e-08
0.80108
-1.10941e-16
1.00017
-1.17505e-14
0.99296
0.872378
1.00324
0.974791
0.994675
0.996401
0.935365
0.998581
1.00103
0.997124
1.00132
0.997492
1.00226
0.998803
3.9734e-06
1.00137
0.320467
1.00057
-2.18313e-18
1.0012
0.310813
0.949652
1.03966
0.992867
1.03344
0.977135
1.01322
0.98383
0.99806
1.0005
0.941303
0.940654
0.998455
0.998487
0.940654
0.616187
1.00078
0.990559
1.0002
0.615694
1.00131
0.998411
1.00919
1
0.942944
0.999297
0.995718
0.99952
0.945702
0.999039
1.0023
0.999293
1.0021
0.998949
1.00252
0.999107
1.00019
1.0024
1.00088
1.00219
1
1.00183
1.00032
0.987802
1
0.996321
0.986333
0.981541
1.00005
1.00472
1.00151
0.999171
1.00274
0.994201
1.00286
0.998377
0.992525
1.0009
1.00444
1.00002
1.0022
1.00046
1.00379
1
0.937751
1.07353
1.02839
0.904856
0.993555
1.02402
1.0215
1.01047
1.01627
0.991849
1.00564
1.00632
1.01632
0.994495
0.986502
1.00247
0.624848
1.00374
0.993654
1.00213
0.625036
1.03189
0.970582
0.971228
1.02016
1.02439
0.963233
0.992368
1.01154
1.01206
1.00748
1.02861
1.01099
1.01351
1.01643
0.367199
1.00077
0.000236829
1.00225
0.355756
1.00029
6.71652e-05
0.729099
1.00479
0.996356
1.00001
0.701143
1.00169
0.993839
0.993739
1
0.937322
0.965188
0.994523
1
0.932336
9.92563e-08
0.93394
6.14768e-10
1.00007
-3.82477e-22
0.936004
-1.64375e-22
1.01202
1.00657
0.998638
0.998896
1.00113
1
0.999841
0.9998
1.00738
0.999182
1.00387
0.999741
1.00761
0.999419
7.03676e-09
0.543832
7.03675e-09
0.824432
-1.76372e-19
0.542766
-1.07736e-15
1.00233
1.00101
1.00011
1.00012
1.00025
1.00279
1.00108
1.00912
1.01736
1.01458
1.02802
1.01765
1.01465
1.00926
1.00363
1.00054
1.00767
1.00209
1.00079
1.00778
1.00352
1.00687
1.00173
1.00436
1.01277
1.0147
1.00652
1.00493
1.00215
1.00022
1.00127
1.00018
1.00037
1.00196
1.00125
1.0087
1.0281
1.01808
1.01514
1.01814
1.01514
1.00858
1.00374
1.00249
1.00078
1.00743
1.0009
1.0075
1.00373
1.00547
1.00554
1.00117
1.00117
1.00561
1.00149
1.00568
1.01007
0.982854
1.00331
0.987246
0.981571
1.00381
1.01111
1.00344
1.00117
1.00402
1.0015
1.0014
1.00379
1.00418
1.01093
1.01859
1.01044
0.992328
1.01039
0.997938
1.00631
1.00578
1.00156
1.00588
1.00196
1.0058
1.0018
1.00543
1.01126
0.967725
1.00626
1.00348
1.0021
1.00413
1.01047
1.0032
1.00204
1.00154
1.00365
1.00184
1.00379
1.00309
1.00016
1.00181
1.0023
1.00172
1.00201
1.00179
0.999957
0.979176
0.942195
1.00082
1.01117
1.00238
1.00131
0.978569
0.998901
1.00207
1.0019
1.00238
1.00022
1.00182
0.999866
1.00431
0.999216
1.00052
1.03244
1.00027
1.03099
1.0024
1.00003
1.00237
1.00198
1.00208
1.00216
1.00202
1.00019
0.977013
1.01674
0.942232
0.998938
0.963828
1.00022
0.97677
0.999647
1.0029
1.00148
1.00175
1.00053
1.00186
1
1.00087
1.00086
1.00079
1.00318
1.00146
1.00215
1.00085
0.997999
0.976529
1.00048
0.998357
0.986466
1.00045
0.999356
1.00042
1.00212
1.0021
1.00424
1.00316
1.00221
1.00079
1.00008
1.00179
1.00237
1.02135
1.00262
1.01051
1.00021
1.00101
1.00291
1.00205
1.00272
1.00196
1.00298
1.00105
0.998278
1.00268
0.991853
1.00053
0.997749
1.00057
0.999904
1.00052
1.00441
1.00315
1.00298
1.00362
1.00271
1.00051
1.00105
1.00358
1.0038
1.00415
1.0034
1.00362
1.00125
0.999168
0.975498
1
0.999978
0.979718
0.999999
0.999017
1.00046
1.00281
1.00077
1.00181
1.00255
1.00056
1.00091
0.99363
0.995401
1.00113
0.985671
1.00116
0.988303
0.993457
1.00114
1.00438
1.00325
1.00345
1.00351
1.00377
1.00095
0.99825
0.999934
0.9846
0.999465
0.972441
0.999977
0.998094
1.00049
1.00193
1.00201
1.00038
1.00273
1.00061
1.00018
1.0015
1
1.00243
1.00123
1.00005
1.00227
1.00156
1.00937
1.00898
1.01801
1.03131
1.00731
1.01745
1.0092
1.00635
1.00472
1.00921
1.00608
1.00455
1.00935
1.0064
1.00141
0.975582
0.999696
1.00298
0.998484
1.00225
1.00221
1.00161
1.00135
1.00022
1.00207
1.00002
1.00236
1.00149
1.00889
1.02909
1
1.0165
0.999398
1.01699
1.00853
1.00752
1.0061
1.00512
1.00929
1.00548
1.00943
1.00746
1.01196
1.0138
1.00992
1.004
1.0141
1.01036
1.01201
0.996509
0.987691
1.00057
0.993189
0.972501
1.00054
1.00037
1.00548
1.00583
1.00501
1.00382
1.00568
1.00503
1.00517
1.0061
1.00983
1.01721
0.998594
1.01752
0.988944
1.00618
1.01232
1.00325
1.01335
1.01042
1.01326
1.01018
1.01233
0.999356
0.996291
0.972016
1.00144
0.972633
0.9998
1.00043
1.00588
1.00433
1.00613
1.00543
1.00612
1.00534
1.00578
1.00764
1.00934
1.00304
1.00477
1.00911
1.00314
1.00796
1.00657
1.00735
1.00096
1
1.00585
1.00097
1.00654
1.00612
1.0027
1.00268
1.00094
1.00273
1.00272
1.00618
1.01112
1.02699
1.00755
1.01195
1.00603
1.01126
1.0109
1.0077
1.00502
1.00895
1.00319
1.00912
1.00327
1.00764
1.00639
1.0001
1.00853
1.00111
1.00781
1.00113
1.0065
1.00616
1.00109
1.00274
1.00278
1.00285
1.00283
1.00609
0.998831
1.00018
0.999992
1.00022
1.00015
0.999911
0.999677
0.969372
1
1.0016
1.00133
0.998838
0.99885
0.958057
0.998129
1
0.999324
1
1
0.998768
1
0.9993
0.964773
0.998525
0.973307
0.999805
0.97209
0.997937
0.998798
1.00031
1.00024
0.999675
1.00025
0.999897
0.998478
0.994483
1.00141
0.997864
0.997404
0.997179
0.997347
0.990309
0.994952
1
0.999437
0.996577
0.999709
0.997773
0.982045
1.00217
1.00243
1.0005
1.00068
1.00245
1.00056
1.00217
1.00191
0.987503
1.00093
0.997089
0.987519
1.00158
1.0009
1.00115
1.00011
1.00069
1.00007
1.00019
1.00139
1.00085
1.00268
1.00459
1.00754
1.00129
1.00721
1.00169
1.00216
1.00252
1.00088
1.00268
1.00044
1.00268
1.00086
1.00234
1.00195
0.997533
0.991236
1.00061
0.985703
1.0018
1.00122
1.0014
1.00024
1.00015
1.0006
1.00059
1.00114
1.00106
1.0018
1.0015
1.00024
1
1.00193
1.00009
1.00143
1.00844
1.01871
1.01543
1.02721
1.00847
1.01891
1.01486
1.00355
1.00085
1.00748
1.00228
1.00373
1.00068
1.00775
1.00554
1.00062
1.0008
1.01161
1.01069
1.00543
1.0015
1.00171
1.00006
1.0013
1.00006
1.00021
1.00162
1.00147
1.00856
1.02753
1.01944
1.01538
1.01897
1.0153
1.00851
1.00357
1.00233
1.00057
1.00783
1.00075
1.00789
1.00329
1.00493
1.00592
1.00229
1.0015
1.0053
1.00594
1.0025
1.00847
1.0062
1.00423
1.02088
1.00935
1.00444
1.00745
1.0032
1.00184
1.0039
1.00188
1.00334
1.00156
1.00383
1.00268
1.0156
1.01061
0.990558
1.01075
0.991442
1.00074
1.00472
1.00188
1.00609
1.00283
1.00608
1.00278
1.00417
1.00697
1.03549
0.99561
1.0067
1.00229
1.00713
1.00501
1.0032
1.00211
1.00164
1.00382
1.00185
1.00395
1.00291
0.999233
1.00204
1.0019
1.00182
0.999707