/*--------------------------------*- C++ -*----------------------------------*\
| =========                 |                                                 |
| \\      /  F ield         | OpenFOAM: The Open Source CFD Toolbox           |
|  \\    /   O peration     | Version:  5.0                                   |
|   \\  /    A nd           | Web:      www.OpenFOAM.org                      |
|    \\/     M anipulation  |                                                 |
\*---------------------------------------------------------------------------*/
FoamFile
{
    version     2.0;
    format      ascii;
    class       surfaceScalarField;
    location    "4.2";
    object      alphaPhi10;
}
// * * * * * * * * * * * * * * * * * * * * * * * * * * * * * * * * * * * * * //

dimensions      [0 3 -1 0 0 0 0];

internalField   nonuniform List<scalar> 
23584
(
-9.16086e-09
1.29331e-08
-5.82869e-08
1.44335e-08
-7.15471e-09
-5.29568e-09
-1.38135e-08
-1.30315e-08
-1.92782e-08
-6.23154e-08
-1.92972e-09
-3.60258e-08
-3.90922e-10
7.13102e-08
5.61917e-10
-2.60318e-08
4.30821e-08
6.01569e-08
7.15944e-08
7.23997e-08
1.43397e-08
-1.21493e-08
8.26177e-09
7.36468e-10
-1.22234e-08
-3.81039e-09
-1.43378e-09
2.11106e-08
-2.51753e-10
6.27744e-08
6.2895e-08
6.2782e-08
1.61649e-22
1.62581e-18
-1.06352e-18
3.08473e-18
8.89469e-17
-1.34564e-16
4.25814e-17
1.74796e-18
1.96975e-18
1.75946e-18
-4.41729e-24
2.564e-22
-6.86236e-24
4.87623e-27
6.17398e-26
-3.80374e-27
1.20058e-27
1.69488e-28
-3.34598e-30
8.70541e-30
3.09941e-30
-3.0644e-31
1.95447e-33
4.3758e-33
-4.89863e-33
1.65249e-37
8.19389e-37
7.86231e-37
4.90311e-41
1.45935e-40
9.74652e-40
1.96653e-44
4.32015e-44
-4.48562e-42
8.07449e-48
1.03343e-47
-6.07506e-46
3.34161e-51
1.74908e-51
-1.81916e-48
1.37927e-54
6.36489e-56
-1.62314e-51
5.7412e-58
3.13545e-58
-5.01114e-55
2.47691e-61
1.49628e-61
-1.11267e-57
1.02069e-64
2.41293e-65
-5.00466e-61
4.16631e-68
-1.07989e-68
1.51388e-64
1.71524e-71
1.75486e-72
-2.59803e-68
1.23661e-74
3.65957e-76
-7.68237e-71
1.61604e-77
-1.52726e-78
-2.31265e-73
2.50993e-81
5.50569e-82
-4.92476e-77
1.69714e-84
5.84812e-86
-3.09995e-80
3.12822e-87
-4.93079e-88
1.5549e-82
4.75674e-91
-8.38284e-92
4.41078e-87
2.65848e-94
1.3589e-94
5.14485e-90
1.19847e-97
6.06541e-99
-3.98158e-93
2.65515e-100
3.76472e-102
1.45761e-95
4.80553e-103
-1.20661e-103
-2.48677e-98
1.20935e-106
5.77139e-108
9.36357e-103
8.77258e-110
2.35427e-110
5.90165e-105
9.22424e-113
5.26675e-114
1.29573e-108
2.1637e-115
1.89731e-116
-9.0402e-112
2.1761e-119
-1.9472e-120
1.93708e-118
6.88821e-123
-9.75756e-124
1.34117e-123
6.7273e-126
4.08803e-127
-6.86133e-122
1.40063e-128
6.49325e-130
-2.5174e-124
1.66772e-131
3.58186e-132
-5.88852e-127
3.47414e-134
6.40095e-135
1.21119e-131
4.4652e-138
-6.13093e-139
1.72462e-133
2.83477e-141
1.83922e-141
-1.79816e-136
6.6484e-145
-1.57437e-147
-2.28661e-140
1.40518e-147
-3.22686e-151
-9.78334e-146
1.77048e-149
6.7705e-151
-1.79515e-146
1.60246e-154
2.60507e-154
6.84001e-08
9.01237e-10
-3.11002e-07
2.19303e-08
5.82916e-09
-7.09462e-08
6.60938e-08
3.35824e-08
2.91814e-08
4.09425e-08
2.14263e-08
1.76422e-08
1.03859e-08
-8.2125e-08
-1.06802e-07
5.95975e-09
6.82507e-10
-1.49625e-08
-1.90463e-08
4.93012e-08
-1.63708e-08
2.86987e-09
-9.85397e-09
6.68849e-09
1.75626e-08
-6.07626e-09
-1.00041e-08
3.42761e-08
2.16178e-08
4.26943e-08
-5.26862e-08
1.76654e-08
2.06133e-08
1.59646e-08
1.86418e-08
1.97365e-08
-6.28548e-09
2.07392e-08
-1e-08
2.31021e-09
-8.34965e-09
-7.32662e-12
-9.00384e-11
1.79465e-08
5.6424e-11
1.78778e-08
-2.25589e-18
1.74309e-18
2.76599e-08
2.87721e-18
-2.33039e-18
-2.23327e-18
-2.30925e-18
-1.09573e-24
-1.92762e-22
1.80711e-23
6.62052e-22
6.70825e-22
8.31625e-22
5.85556e-22
1.55181e-25
4.84261e-26
2.81338e-26
5.88321e-28
6.23002e-27
6.15186e-30
1.53382e-31
2.67925e-29
1.00401e-31
1.88562e-34
-3.2716e-32
-7.43986e-34
6.27823e-38
-2.82736e-37
1.40641e-37
1.27016e-41
-7.09567e-41
-6.77193e-41
4.7101e-45
-1.57558e-43
-4.08523e-43
1.93817e-48
3.26767e-47
-5.46254e-47
8.05627e-52
2.90198e-50
3.71526e-49
3.34448e-55
3.53998e-54
-3.62867e-52
1.38131e-58
-1.00457e-57
3.92454e-56
5.74071e-62
7.02219e-61
4.0038e-59
2.42156e-65
9.50091e-67
7.97312e-64
1.07134e-68
-9.68954e-68
-1.26369e-66
4.69775e-72
5.55501e-71
-9.87431e-69
1.95029e-75
-7.59334e-75
-2.17022e-72
9.2931e-79
5.24654e-78
-1.9798e-75
5.0312e-82
-2.94098e-81
1.41013e-77
1.92459e-85
-4.44067e-85
-8.97602e-82
1.05944e-88
-1.57614e-87
-4.71804e-84
5.14609e-92
9.11022e-90
3.60418e-87
5.10965e-95
2.68669e-96
-2.1641e-91
6.3779e-98
3.72233e-99
-8.39102e-94
1.61803e-101
-1.25283e-98
-2.45753e-97
1.76526e-104
-5.42595e-102
9.35933e-99
4.48819e-108
3.70871e-109
6.59669e-104
3.75185e-111
-2.24219e-109
3.79726e-106
1.42645e-114
-1.64313e-112
-1.30588e-109
3.3547e-117
2.32026e-119
1.21548e-118
4.69664e-119
-2.04423e-119
1.08684e-116
5.09208e-123
-8.83051e-123
1.26358e-118
1.09902e-126
-7.7706e-126
4.97231e-122
6.66094e-130
-1.30186e-129
-4.58717e-125
1.76005e-133
2.29617e-132
-3.19117e-128
8.14171e-137
-1.79011e-137
5.56349e-138
6.70626e-140
9.81425e-140
1.33025e-134
2.40061e-143
-6.72088e-146
-6.87933e-138
7.34698e-147
-8.31472e-145
-1.90466e-142
2.65173e-150
-2.83065e-148
1.15189e-146
2.96516e-152
2.62776e-154
5.95776e-151
-3.7635e-157
-5.10708e-151
6.97874e-08
1.48023e-08
-1.99761e-07
-4.11249e-09
-1.75296e-08
5.38333e-08
3.97725e-07
1.99867e-07
1.97686e-07
-1.08832e-09
1.17005e-08
-1.03655e-08
-2.34629e-08
-4.00907e-08
-1.42797e-08
-5.59682e-08
-6.41841e-08
-4.45609e-08
-2.46217e-08
9.97347e-10
-1.44478e-08
-2.39824e-08
-2.94704e-08
-3.50114e-08
-6.73572e-08
-1.20315e-07
-1.9437e-08
-1.09355e-08
-1.15843e-07
-2.03971e-09
5.69768e-09
9.27433e-10
4.76602e-09
-6.60619e-09
4.13294e-10
3.71621e-10
9.02354e-10
-1.46801e-10
1.41148e-09
1.08205e-15
-1.24138e-18
-1.88534e-17
-6.84801e-15
4.41495e-15
6.09245e-16
-8.11417e-18
-5.74826e-09
-5.74826e-09
-5.74826e-09
-5.74826e-09
1.82078e-23
-8.00828e-21
2.90097e-22
8.17827e-20
9.21242e-20
1.30024e-19
-1.99899e-21
-9.36556e-26
-2.6802e-25
-7.07725e-27
-9.01055e-27
-8.03016e-30
6.31158e-29
3.05375e-28
7.98337e-29
3.09815e-29
1.11183e-31
2.7216e-31
9.02999e-31
4.94191e-36
5.67737e-35
-7.58073e-35
1.35432e-39
1.03689e-38
-2.30425e-38
5.40334e-43
2.74939e-42
-1.14428e-41
2.19641e-46
7.66512e-46
-1.4237e-43
8.95008e-50
9.65905e-50
-2.60362e-46
3.63467e-53
7.77552e-53
-3.79434e-50
1.47415e-56
2.56184e-57
-3.54689e-54
6.03019e-60
1.49336e-59
-2.9423e-56
2.47932e-63
2.0419e-64
-1.33349e-59
1.04023e-66
-1.34403e-66
1.37172e-62
4.25933e-70
-6.63756e-71
1.28188e-65
2.18121e-73
1.22724e-73
2.38137e-69
1.77617e-76
-9.1877e-77
8.65403e-72
6.65217e-80
6.0851e-81
9.36054e-76
4.01231e-83
5.98129e-84
-1.77007e-82
1.12821e-85
1.42908e-86
-1.16407e-80
3.38294e-89
-2.64583e-90
-3.50365e-85
5.98268e-93
-2.21019e-93
1.32436e-93
2.33146e-95
-8.32265e-96
7.98971e-97
7.5939e-97
6.58727e-99
-4.59978e-94
6.74093e-101
3.47088e-102
-1.48281e-96
7.6979e-105
9.18278e-106
6.78917e-101
3.05914e-108
-2.43116e-109
8.19513e-106
1.28813e-111
3.36341e-112
4.18656e-108
1.07872e-114
-7.3748e-116
2.62373e-111
5.1508e-117
1.98387e-121
-1.01879e-113
5.39516e-121
-5.96383e-121
2.70316e-116
2.75232e-124
2.97355e-124
-3.06829e-119
1.8386e-127
-1.69968e-127
-7.06769e-123
1.31173e-130
-1.08241e-130
3.66869e-125
2.45841e-134
-2.41622e-134
7.5733e-129
1.14617e-137
-3.15474e-138
5.6169e-132
8.95457e-141
-3.90277e-141
5.13285e-140
3.71828e-143
9.21014e-145
-3.81332e-140
1.63301e-146
2.92545e-147
-1.92746e-142
1.84132e-150
1.88776e-152
2.02005e-149
-6.63666e-154
1.61572e-154
-1.21758e-10
1.56598e-08
-4.45983e-07
6.55347e-08
3.56847e-09
-8.59054e-08
6.64553e-09
-1.39592e-09
-7.08543e-09
1.48763e-08
-1.19042e-08
-9.36456e-07
-3.02705e-07
-5.59264e-07
6.80878e-08
7.57444e-09
-1.39875e-08
-1.56639e-09
-1.32032e-08
-3.44071e-09
-4.85617e-09
1.2718e-09
1.40701e-08
1.52665e-08
1.36398e-08
-2.52457e-08
-2.12437e-08
8.729e-09
3.33785e-08
6.24882e-09
-4.41314e-08
1.71641e-08
5.10231e-09
7.21093e-09
-8.17884e-08
-1.32139e-07
2.04791e-07
5.17334e-08
3.71713e-08
-8.82858e-08
-8.79326e-08
-8.65555e-08
-9.0296e-08
1.18198e-09
-1.66766e-08
3.33829e-09
3.45881e-09
8.75038e-09
-1.02937e-10
3.95297e-10
-2.39087e-10
1.10289e-10
-2.07877e-10
-1.11288e-10
-2.65645e-10
3.98265e-10
3.53935e-10
4.36588e-10
-2.19975e-10
-1.55859e-10
-1.83356e-10
-1.80283e-10
-1.74459e-11
2.58971e-15
2.33568e-08
1.28403e-12
2.3357e-08
-2.35357e-22
-5.80012e-19
-5.64543e-21
4.0238e-19
2.03744e-18
-3.31056e-19
-4.55405e-19
2.32551e-27
-6.52058e-23
-9.46361e-25
1.61916e-27
-1.55196e-26
1.29876e-29
1.60195e-28
-7.34953e-28
8.80824e-30
4.92601e-31
-3.64241e-30
1.42167e-32
8.02858e-35
4.60444e-34
-3.36128e-34
8.89824e-39
1.83982e-37
-6.95892e-38
3.00475e-42
4.55956e-41
-9.02131e-41
1.2195e-45
3.98688e-45
1.33668e-44
5.01832e-49
5.67525e-48
-8.98351e-46
2.02727e-52
1.01464e-51
-8.37939e-50
8.29245e-56
4.97214e-56
1.00943e-52
3.41168e-59
-1.46467e-59
-1.49249e-56
1.56139e-62
-2.86017e-62
-1.64968e-59
8.76727e-66
1.40062e-65
-3.25366e-62
3.60306e-69
3.85813e-69
-2.19937e-65
1.73605e-72
1.44645e-72
2.59539e-68
6.74502e-76
-3.02924e-76
-1.32131e-72
5.6e-79
4.69008e-80
-4.21388e-75
1.58879e-81
2.11614e-82
-4.61261e-78
1.86953e-85
-2.55804e-84
3.58536e-81
1.23858e-88
1.11246e-89
4.10489e-84
3.8974e-91
5.96393e-92
-1.42631e-87
1.07374e-94
-4.20265e-95
-3.46029e-91
3.06238e-98
-2.01615e-96
-8.12998e-93
2.1215e-101
-1.61955e-101
-1.22106e-96
3.24904e-104
-6.62484e-106
-9.15425e-100
5.68508e-108
1.16369e-108
-2.07251e-104
3.57154e-111
-2.24573e-110
2.02296e-107
1.07654e-113
-5.12742e-114
2.04985e-109
3.50139e-116
1.1704e-116
-9.42182e-113
4.65983e-120
9.88744e-121
-5.60631e-115
2.63424e-123
1.8365e-124
-8.12977e-119
3.75153e-126
1.43581e-126
-1.12467e-121
1.08889e-129
-1.69848e-130
8.20577e-125
1.40186e-132
2.41522e-132
-8.51451e-128
1.44834e-135
5.84422e-136
-1.33886e-131
3.35675e-139
5.15038e-140
-4.08569e-135
9.58957e-143
4.08826e-143
-5.23787e-140
5.75541e-146
3.08263e-146
-6.97171e-142
5.51273e-149
-3.93541e-148
-5.27301e-145
-6.30236e-151
-4.48063e-148
-2.04651e-08
4.6868e-09
8.11988e-08
2.83906e-08
-1.45367e-08
-1.59056e-08
5.56763e-09
4.91218e-09
4.73431e-09
2.1024e-08
-3.50529e-08
-6.46011e-09
-1.00145e-08
1.2802e-08
-2.83187e-08
-2.15952e-08
-9.89649e-09
-7.42403e-09
-1.99566e-08
-1.07405e-08
8.08208e-09
5.45073e-08
5.94987e-09
2.30473e-09
-9.26806e-08
-3.96804e-08
8.96534e-08
-1.10786e-07
1.17186e-08
1.58406e-08
1.65503e-08
1.24721e-08
1.14439e-10
-2.7949e-08
5.40232e-09
-3.78414e-09
2.46435e-08
-3.01561e-09
6.64334e-10
-1.49852e-09
-1.15608e-10
2.80208e-10
-2.60355e-10
9.23245e-10
2.65156e-10
1.54305e-10
2.66737e-10
1.94975e-10
-1.92295e-10
9.24533e-12
3.09032e-08
2.95275e-11
3.09197e-08
1.18005e-22
-6.66075e-20
-3.38314e-19
-2.54249e-18
1.07193e-16
-1.02611e-16
2.13437e-17
3.67016e-24
2.18965e-23
-1.37142e-23
-9.59241e-27
-2.18234e-27
-4.33295e-28
3.27814e-27
-7.67433e-28
6.40509e-29
1.22222e-29
-6.22282e-30
-2.3634e-30
1.6175e-33
-2.09596e-33
-1.04091e-32
1.5287e-37
-1.22267e-37
-7.36829e-35
4.90152e-41
-2.25422e-41
-6.86416e-38
1.95212e-44
-2.58006e-44
-2.69486e-42
7.98301e-48
-5.04193e-48
-3.65387e-45
3.31254e-51
-1.50464e-51
2.10497e-48
1.37805e-54
-4.47509e-54
8.21965e-51
5.79163e-58
-2.56125e-58
9.63555e-57
2.62987e-61
-1.62579e-61
7.2415e-57
1.00391e-64
1.15527e-65
-2.77928e-61
4.38182e-68
-8.37829e-69
-8.99589e-64
2.06353e-71
1.12129e-72
4.56344e-68
1.34514e-74
-8.26279e-75
-6.9387e-70
5.78394e-78
3.19205e-78
-9.39535e-74
9.44396e-81
3.41659e-82
1.54208e-76
1.94772e-83
1.15748e-84
-2.8288e-79
7.654e-87
-8.60868e-86
-3.05278e-81
4.38842e-90
-7.41977e-91
-4.59318e-86
2.19662e-93
3.08857e-94
1.92153e-89
4.92468e-96
-2.56804e-98
-2.54384e-91
4.67309e-100
-8.61436e-101
3.46144e-96
1.62759e-103
-6.414e-103
1.30815e-98
2.16358e-106
1.85519e-107
-5.34587e-102
7.16528e-109
1.13356e-109
-5.80272e-105
6.54039e-113
-1.00969e-112
-6.13067e-108
4.63963e-116
-2.97024e-116
1.46341e-116
1.43605e-118
3.93733e-119
6.67675e-114
1.12306e-122
2.03371e-122
-1.26107e-117
1.62262e-125
1.14637e-124
7.1638e-121
3.95285e-128
-5.66928e-128
2.12176e-123
2.83424e-131
7.14694e-132
3.49526e-127
7.38948e-135
-5.54264e-135
1.2273e-129
1.18706e-137
-1.20586e-138
8.80922e-135
6.95913e-140
6.43559e-141
-1.25517e-136
9.41422e-144
5.65723e-144
-2.45336e-140
6.56018e-147
2.07616e-147
-5.66784e-143
1.61914e-151
-1.11034e-145
-7.31431e-09
-1.04228e-08
1.52319e-08
-1.21455e-08
3.5843e-08
1.37966e-08
-4.21868e-08
4.6394e-08
1.10409e-08
-1.75809e-08
-5.27228e-09
-2.46796e-08
-1.00127e-08
-2.01538e-08
-2.90062e-08
7.49532e-08
5.94435e-08
3.22664e-08
7.67735e-08
3.26391e-08
-3.51765e-08
-3.28448e-08
-2.61057e-08
-2.52238e-08
2.79026e-08
-7.52716e-09
8.62997e-09
9.51473e-09
-1.0288e-08
7.97203e-10
3.12174e-08
-6.9462e-10
-2.16331e-09
-2.86321e-08
-9.86491e-10
1.27667e-09
-1.58398e-09
1.27533e-11
-1.6191e-10
-1.24577e-09
7.46347e-10
1.65082e-10
1.107e-10
1.74988e-10
1.71198e-10
-2.21208e-10
4.20154e-12
6.27746e-08
7.2617e-12
6.28431e-08
3.45408e-23
6.14647e-19
-5.55211e-19
4.11563e-17
1.91559e-17
-9.21903e-18
-2.83395e-17
5.64707e-24
8.74015e-23
-2.46932e-23
-2.85916e-27
2.80051e-27
-5.25379e-28
2.34098e-27
-4.30375e-28
2.1545e-29
9.65767e-30
-4.1351e-30
-3.54277e-29
1.28671e-33
-2.54616e-33
3.79041e-32
1.21166e-37
-3.52085e-37
-7.65026e-36
3.86896e-41
-8.70568e-41
-7.03967e-38
1.61292e-44
-1.98032e-44
4.69811e-42
7.17425e-48
-5.71756e-48
8.53805e-46
3.05743e-51
-4.55416e-52
9.99467e-48
1.47244e-54
6.26876e-55
-7.12632e-50
5.37687e-58
-6.37077e-58
1.15723e-53
2.22696e-61
1.0716e-61
8.25069e-57
1.22528e-64
-3.6546e-67
2.72126e-61
1.17181e-67
2.75542e-68
-4.59025e-63
1.0167e-70
2.5687e-72
-7.52649e-67
3.56436e-73
3.52247e-74
-2.13263e-70
3.03465e-77
1.68941e-78
-1.50352e-73
2.00102e-80
-4.11421e-83
-6.40192e-76
6.89492e-83
3.3895e-84
-2.25135e-79
7.38184e-86
1.26872e-86
-5.52657e-81
5.14472e-89
3.04121e-89
-3.05177e-85
6.80748e-93
-3.77359e-95
7.12704e-89
2.7412e-96
1.69464e-97
-2.19525e-93
2.67451e-99
1.92293e-100
-3.75075e-94
3.71773e-102
4.49994e-103
-3.98859e-98
5.25456e-106
5.9251e-107
-2.06698e-101
4.26393e-109
-4.43599e-110
-1.55521e-104
5.44731e-112
1.09357e-112
-2.06657e-107
1.47012e-115
-5.92957e-118
5.82605e-112
3.1119e-118
-7.81085e-120
4.94305e-114
1.77912e-121
-7.22586e-123
1.42358e-117
2.89075e-124
-8.21184e-125
9.29813e-120
9.46132e-128
1.79645e-128
-4.50437e-123
3.14068e-131
6.72295e-132
3.58834e-126
1.48309e-134
2.85533e-136
8.80269e-130
1.23167e-137
-6.08076e-141
-4.97205e-134
2.09062e-141
1.34649e-142
5.66276e-142
7.5797e-145
7.54172e-147
1.46841e-141
2.90155e-148
1.19403e-149
-1.721e-143
1.56782e-152
7.92324e-152
1.34491e-07
-1.87914e-09
2.32823e-07
9.55588e-08
1.00914e-07
7.16568e-08
2.63862e-07
2.82011e-07
-1.12858e-07
-6.31833e-09
-6.54065e-09
-7.08667e-09
-7.28334e-09
5.89071e-08
6.72698e-08
9.32923e-08
2.42015e-08
3.07459e-08
3.09133e-08
2.43742e-09
4.01132e-08
6.10773e-08
4.5496e-08
4.25852e-08
4.16175e-08
-4.45497e-08
-7.1339e-08
-5.62685e-08
-1.82708e-08
-5.33743e-09
2.17081e-08
2.40545e-09
-1.1486e-08
-1.6957e-08
5.29458e-09
7.07696e-10
7.98082e-09
-1.51608e-09
-4.77706e-09
-4.66855e-09
-1.02546e-09
-7.16455e-10
1.51395e-09
-9.45135e-10
1.5956e-09
-2.45825e-10
-5.33509e-10
5.07436e-11
2.89394e-10
1.29238e-10
1.41918e-10
-7.33417e-11
-9.73208e-12
2.21694e-08
1.7209e-11
2.21645e-08
-3.67608e-22
1.98351e-21
-2.37498e-20
7.23996e-18
1.59848e-19
-5.23068e-18
-5.04111e-19
1.81341e-26
2.42053e-25
-1.90699e-24
3.18845e-27
-1.54758e-27
-2.15994e-30
1.56187e-28
-9.85698e-29
5.56983e-31
4.51168e-31
-3.2493e-31
5.29688e-32
7.20493e-35
-7.42592e-35
1.24484e-34
8.13147e-39
-8.95788e-39
1.44627e-37
2.77339e-42
-3.64176e-42
5.78788e-42
1.12264e-45
-9.3957e-46
-2.49494e-44
4.59243e-49
-1.86598e-49
-6.76901e-47
1.88157e-52
-1.08684e-52
1.3056e-49
8.28447e-56
-1.51688e-56
-1.22573e-52
3.85086e-59
-8.22141e-60
-2.61241e-55
1.4117e-62
-1.52583e-63
-4.11999e-59
5.88695e-66
3.14589e-67
2.09318e-62
2.64483e-69
-1.41122e-70
-3.01557e-66
1.38362e-72
2.16111e-75
-2.38291e-69
4.387e-76
-2.92326e-77
-2.34954e-73
2.26507e-79
-6.72139e-80
-7.85841e-76
6.22105e-82
-2.89373e-83
-1.45769e-78
2.56387e-84
9.11872e-86
-1.24941e-80
1.46396e-88
1.51997e-89
-6.24196e-86
7.18924e-92
-8.32763e-93
2.36092e-89
1.17302e-94
-2.21041e-96
8.05575e-92
1.43864e-98
-7.31946e-100
1.0684e-99
6.58924e-102
1.67842e-102
1.27475e-96
4.11805e-105
-1.88647e-106
-1.13933e-100
4.47066e-108
8.62744e-109
1.921e-104
3.99845e-111
-1.8179e-112
3.98934e-107
1.40738e-113
7.4394e-115
-6.1551e-109
5.07135e-117
-2.68104e-119
-2.76419e-113
5.80811e-120
-7.73175e-122
-8.93011e-116
1.16966e-123
-5.18286e-126
-1.45119e-119
1.29448e-126
-7.79904e-129
-4.6934e-122
3.40309e-130
-4.28711e-131
-3.2823e-125
1.99577e-133
1.00406e-135
7.21586e-129
1.29922e-136
-2.43512e-137
-2.92285e-131
1.76681e-139
6.7917e-142
-4.28653e-136
1.03695e-141
1.53041e-144
-2.05117e-138
5.98897e-146
-1.37444e-147
1.04762e-146
6.86582e-149
-7.9435e-152
2.6782e-150
3.02767e-152
-5.8232e-148
7.69609e-08
3.56434e-08
-1.78938e-07
1.00204e-07
3.90308e-08
-4.02457e-07
6.10767e-08
7.63272e-08
5.55189e-08
-2.15297e-08
-6.63778e-08
-1.03813e-08
-4.16094e-08
-1.89734e-07
-6.0365e-07
-1.63943e-07
3.8384e-08
3.22482e-08
8.17885e-08
-4.12451e-08
-4.41239e-08
4.45158e-08
-1.38501e-09
-5.85558e-08
-7.95442e-09
-3.86503e-08
7.34119e-09
1.21312e-09
9.7499e-10
-2.99925e-08
4.76748e-09
1.70538e-08
-7.743e-10
-3.31106e-09
-2.00059e-08
1.12012e-09
-5.05492e-10
1.29977e-09
7.5934e-12
8.8435e-10
-1.68691e-13
-1.25941e-14
-1.26131e-08
1.67047e-13
-1.26132e-08
-4.30236e-23
-1.1995e-22
5.52525e-22
1.19012e-20
7.79761e-21
-3.95388e-20
3.06712e-20
2.34463e-26
-1.32792e-26
1.2146e-26
4.09338e-26
-2.17813e-28
2.47767e-29
2.7949e-28
-3.08936e-29
-4.29064e-30
1.14907e-31
1.50912e-32
-7.6671e-32
5.28676e-36
-2.40707e-37
-4.08892e-34
1.41895e-39
7.68971e-41
-3.30251e-37
5.65015e-43
-2.14838e-44
-4.17455e-41
2.29046e-46
-3.82259e-47
-8.53205e-44
9.32377e-50
4.23869e-51
1.52288e-46
3.86701e-53
-9.98744e-54
4.47596e-50
1.60696e-56
2.57369e-57
-1.18248e-52
6.61509e-60
-4.94454e-61
3.9989e-56
3.01698e-63
-2.54029e-64
2.08645e-59
1.20636e-66
5.22009e-68
7.84107e-63
4.48708e-70
-9.58439e-73
1.23523e-66
3.31649e-73
-1.46419e-75
-7.63994e-72
8.03328e-76
3.83462e-77
-2.64334e-72
1.93544e-79
-3.06816e-83
-4.45216e-75
4.05756e-83
4.75725e-84
-2.80971e-78
3.52449e-86
-6.99868e-89
2.68405e-86
1.26404e-88
4.03079e-91
8.38498e-85
1.86844e-92
-3.11106e-94
4.15623e-91
1.90673e-95
4.636e-97
-1.72903e-91
8.40354e-99
5.83152e-100
6.43837e-94
2.87826e-102
4.58868e-104
1.00164e-96
5.17873e-105
4.97633e-107
-2.67417e-100
1.16976e-107
6.85655e-110
1.03503e-103
1.3003e-111
-1.22201e-113
5.62958e-107
9.52799e-115
3.63481e-116
-2.71585e-109
5.37374e-118
5.94811e-120
5.75577e-114
2.33841e-121
4.11267e-123
-6.31693e-118
2.40251e-124
-7.19134e-126
8.75098e-120
6.14569e-127
2.74879e-128
1.29657e-122
1.62561e-130
4.12447e-131
-4.62297e-125
1.06861e-133
2.94531e-135
-8.69158e-129
3.76485e-137
1.31066e-138
-1.14515e-131
1.05754e-140
8.99981e-142
-1.07626e-138
3.99519e-144
-1.63279e-146
1.26742e-144
1.52952e-147
-1.41107e-148
2.39211e-148
5.97898e-151
-1.51833e-151
2.72431e-151
1.36295e-156
-3.14257e-149
-4.487e-08
2.87333e-08
1.91841e-07
9.60577e-08
3.1511e-08
9.12616e-08
2.48323e-08
3.20984e-08
3.31074e-08
-5.0313e-09
2.69878e-08
6.46703e-08
1.03383e-07
-7.40265e-09
1.57665e-08
2.12662e-09
8.18869e-09
6.99745e-09
1.85415e-08
3.95287e-09
-6.57002e-09
-1.03904e-08
1.24113e-09
-4.04127e-08
4.35542e-08
4.55836e-08
9.33411e-09
1.03262e-08
7.38615e-09
6.33391e-08
1.35104e-08
-1.32664e-08
-8.9651e-09
2.18546e-08
-5.93965e-09
1.30992e-08
-5.95608e-09
-4.12445e-09
2.17333e-09
-3.41977e-10
7.86368e-10
-2.5326e-08
2.50013e-10
-2.47459e-08
3.81339e-17
7.10886e-17
3.22594e-08
3.22594e-08
-7.78836e-19
2.29814e-16
4.05672e-16
2.68622e-16
2.81003e-24
-4.76505e-22
1.61136e-23
-1.42552e-22
-1.33268e-22
-1.62403e-22
1.66366e-21
4.90043e-26
-3.64592e-26
-2.95505e-26
9.14343e-28
-7.32149e-28
3.74038e-30
3.60616e-31
-3.11513e-31
-3.15224e-30
1.42794e-34
4.53546e-33
-6.51368e-34
6.20593e-38
4.56426e-37
6.00005e-38
1.55325e-41
4.83969e-41
-1.24218e-39
5.81908e-45
1.9126e-44
9.56152e-43
2.43548e-48
8.42891e-48
2.95788e-46
1.03416e-51
-4.50271e-51
-4.41663e-49
4.39141e-55
6.20276e-56
2.05117e-52
1.82834e-58
-1.73849e-58
-1.34258e-55
7.67164e-62
-1.67016e-61
1.36915e-58
3.25806e-65
-1.77067e-66
-2.57704e-62
1.36913e-68
-1.72591e-68
-4.69406e-65
7.79897e-72
9.74725e-76
-1.0892e-68
6.17967e-75
2.42489e-75
-9.03777e-71
1.31749e-78
-4.03115e-79
-1.86376e-76
5.34951e-82
1.01631e-82
-4.4647e-78
2.27028e-85
3.81987e-86
-2.02993e-81
9.61725e-89
-4.02788e-88
2.77223e-84
2.56263e-91
-1.13082e-91
-7.1782e-89
2.27433e-93
1.13838e-95
-7.95355e-90
7.82127e-98
-5.43466e-98
8.01781e-94
2.66082e-101
-8.55453e-101
1.05953e-97
1.50386e-104
-2.19962e-105
-1.06207e-103
3.39532e-107
-1.13914e-108
-6.09332e-104
6.30541e-111
-3.37475e-111
-1.33462e-106
2.6187e-114
5.16918e-114
5.68145e-109
7.09876e-118
-8.0444e-118
1.27886e-113
9.38121e-121
1.70854e-120
1.43657e-121
4.78517e-123
1.82674e-124
-1.56164e-120
2.29499e-126
-1.80395e-127
3.39446e-122
2.78992e-129
5.1432e-130
5.10998e-125
6.17688e-133
-1.67005e-132
-5.08691e-128
2.31624e-136
-4.73818e-136
-4.31296e-131
1.43151e-139
7.46894e-140
-5.11896e-135
1.56493e-142
-1.33208e-142
-3.16398e-138
2.49889e-145
2.9264e-146
-1.65863e-141
3.20821e-148
-1.20999e-148
-1.86953e-144
3.17036e-151
-3.09416e-152
-3.52785e-147
-1.58079e-155
4.23613e-155
4.08671e-08
-6.78741e-08
4.52311e-08
3.94388e-08
4.57146e-08
-1.23549e-08
3.8337e-08
4.47778e-08
2.87067e-08
3.6784e-08
5.69358e-08
6.90068e-08
6.99195e-08
6.94346e-08
6.92104e-08
3.91476e-08
-1.23463e-08
1.42616e-08
9.00299e-08
1.64224e-09
-2.01715e-08
1.52148e-08
-1.00317e-08
-1.22411e-07
-6.75384e-08
-9.18598e-10
2.89152e-09
6.42279e-09
1.13687e-09
-1.14295e-08
-2.04651e-10
6.49163e-11
1.79646e-08
-5.40729e-11
1.80476e-08
6.60016e-22
-3.31967e-18
3.89778e-16
-2.81825e-17
1.72196e-16
-5.25916e-16
-2.31686e-18
-1.72658e-18
-8.26303e-18
-1.69136e-18
-2.74736e-24
-1.75529e-23
7.08083e-27
-1.8508e-26
6.17253e-28
-8.37066e-30
1.30741e-29
-1.68055e-31
5.10712e-33
-1.58352e-33
3.37397e-37
3.71935e-36
9.4609e-41
-4.45508e-41
3.774e-44
-1.37269e-42
1.54557e-47
2.33398e-48
6.34458e-51
4.24358e-49
2.61296e-54
6.27345e-52
1.0755e-57
-9.75619e-55
4.37074e-61
2.08066e-58
1.78695e-64
-3.12458e-61
7.28967e-68
-1.29875e-64
3.00888e-71
-1.82219e-69
1.24962e-74
-5.18801e-71
5.18804e-78
-1.11087e-75
2.28931e-81
-7.6818e-78
1.57715e-84
-8.26178e-81
2.14549e-87
-8.54369e-84
4.80878e-91
-1.11122e-87
3.62456e-94
9.90584e-91
5.42022e-97
-1.88173e-93
2.22949e-100
-1.17257e-96
1.16725e-103
1.63115e-99
3.62899e-107
-2.45003e-103
4.82678e-110
4.72658e-105
5.46628e-113
4.17968e-108
2.9734e-116
3.54456e-112
1.1248e-118
-2.37345e-115
8.77762e-123
-3.82558e-121
2.38146e-126
-7.30618e-123
3.78437e-129
1.71634e-125
2.84613e-131
7.53728e-128
2.40682e-135
-9.78286e-131
1.21152e-138
9.4269e-134
1.22523e-141
-5.28178e-137
3.95058e-145
4.15102e-142
3.57428e-148
-1.41408e-144
6.83025e-152
2.45977e-149
1.97081e-150
6.66328e-09
-2.67683e-09
-2.98641e-08
-7.79981e-09
-3.55614e-09
-8.12624e-09
-1.50124e-07
-1.98104e-07
-6.67142e-10
-4.25161e-08
2.59465e-07
-1.1719e-09
3.54506e-09
-7.3093e-08
5.32253e-09
-2.23122e-08
2.92077e-08
1.62769e-07
-3.74964e-08
2.67648e-07
-1.57071e-08
-2.47256e-08
-1.94062e-08
-5.37911e-07
-3.1876e-08
2.14541e-08
-2.70365e-07
2.14714e-08
-7.57671e-08
2.6098e-10
-6.9364e-09
-2.78854e-10
8.37059e-08
-4.55998e-10
-4.06795e-11
-2.99715e-11
4.83342e-08
4.82524e-08
-6.21214e-21
4.5545e-18
1.14895e-18
-1.91636e-16
1.95335e-16
-1.94026e-16
1.91517e-16
5.17206e-18
4.5964e-18
5.16997e-18
4.89327e-24
1.27065e-21
4.56049e-24
2.0908e-26
3.58474e-24
3.42467e-27
4.24368e-27
4.19943e-26
-1.4304e-30
1.74887e-28
7.40735e-29
1.21746e-31
5.0632e-31
2.33338e-31
-3.75221e-33
1.24768e-34
2.31234e-34
3.05582e-36
2.81471e-38
5.64514e-38
2.49486e-39
1.7725e-41
1.83404e-41
6.47249e-42
1.31021e-44
8.83885e-45
-1.12037e-46
9.38786e-48
2.93626e-48
-2.3398e-48
6.62237e-51
1.60497e-51
-3.08299e-52
4.67297e-54
2.03709e-54
-1.66006e-54
3.30134e-57
2.01623e-57
9.38813e-58
2.33032e-60
-9.01298e-61
-5.9626e-61
1.64404e-63
-6.55406e-64
-1.5118e-64
1.15927e-66
5.78594e-68
1.08503e-68
8.16831e-70
2.03396e-71
1.18882e-70
5.75283e-73
-5.91059e-74
4.92552e-74
4.04897e-76
4.21932e-77
1.75335e-77
2.846e-79
1.77497e-80
1.65279e-80
1.9966e-82
1.55877e-83
-4.50257e-83
1.39899e-85
-1.45343e-87
-9.3584e-87
9.78192e-89
7.79512e-89
-6.70827e-90
6.83353e-92
2.42431e-92
3.82649e-95
4.77025e-95
-1.23084e-95
-5.80521e-95
3.32239e-98
3.47954e-98
8.61566e-99
2.31099e-101
-7.78784e-103
-9.14903e-103
1.60292e-104
-1.73112e-105
-1.3607e-105
1.10915e-107
1.68549e-108
-2.64791e-108
7.66239e-111
-1.04103e-112
5.70993e-112
5.28692e-114
9.83393e-115
-3.43674e-120
3.64052e-117
-4.08051e-119
4.58683e-118
2.50182e-120
2.83626e-121
3.66201e-122
1.71516e-123
2.26824e-124
-7.09389e-125
1.17381e-126
-1.14616e-127
-7.11437e-127
8.01694e-130
1.41133e-130
4.0165e-132
5.46346e-133
-5.36147e-136
-7.39044e-134
3.71346e-136
3.18724e-137
2.62227e-136
2.52216e-139
-3.76472e-141
1.41239e-143
1.70929e-142
-1.34571e-144
5.79146e-144
1.09349e-145
-4.4284e-148
7.18914e-148
1.27273e-149
9.93149e-150
-4.90074e-09
-4.15939e-10
2.64089e-08
-4.98719e-09
-2.68442e-09
-2.54458e-09
8.47592e-09
-5.94203e-08
-1.11933e-09
-1.41881e-08
-6.01813e-09
-8.09706e-09
3.33787e-08
4.15793e-08
9.43086e-08
-1.01557e-08
-2.03993e-08
-6.34153e-09
1.03852e-08
1.10664e-08
-1.64315e-08
-5.15845e-07
-4.4818e-07
2.15441e-08
-4.52677e-07
-4.51484e-07
-4.6126e-07
-4.53944e-07
1.61094e-07
8.92326e-10
1.10733e-08
-1.59675e-07
2.04686e-08
-1.11983e-09
-4.0779e-09
-3.33218e-10
-4.19774e-09
7.08769e-08
2.30114e-09
4.68268e-08
-3.35004e-09
7.34816e-09
-1.23228e-07
2.29311e-10
6.98831e-11
-1.98415e-10
2.26727e-10
-3.04558e-11
-5.15775e-11
1.55014e-17
4.95232e-18
-3.16868e-20
5.48804e-18
8.23679e-19
1.64097e-17
1.09655e-17
5.68312e-18
-1.70029e-23
-7.15676e-22
-1.33826e-23
-2.93934e-20
-8.51087e-21
-2.98308e-20
-8.13426e-21
7.58862e-24
1.40619e-24
-3.14157e-26
2.20656e-25
2.01567e-25
-8.77602e-30
7.67528e-29
2.76947e-27
-1.19597e-30
7.93978e-33
-1.06703e-29
-2.7761e-34
4.79012e-36
-4.31181e-33
-1.36512e-37
3.10514e-39
-4.01729e-37
-2.07328e-41
2.13955e-42
-6.39341e-40
8.42488e-44
1.50914e-45
6.1617e-44
-5.40765e-48
1.05411e-48
2.67333e-48
-1.22979e-49
7.31863e-52
1.06169e-50
-8.42969e-53
5.08647e-55
-3.06028e-53
-1.69417e-56
3.53683e-58
2.36628e-56
-6.07054e-59
2.45505e-61
-7.96162e-60
-2.41331e-63
1.71623e-64
-2.03917e-62
8.34345e-65
1.19158e-67
-2.75553e-66
-1.17317e-68
8.24121e-71
-4.17349e-69
8.05533e-72
5.72789e-74
4.99448e-74
2.14254e-75
3.97909e-77
3.6918e-75
-5.44524e-79
2.75649e-80
-1.11233e-78
7.55869e-82
1.90383e-83
-2.40708e-82
2.68512e-83
1.31633e-86
5.81506e-85
1.59246e-87
9.10371e-90
3.67635e-91
1.87855e-90
6.29489e-93
4.48029e-94
8.33397e-94
4.35921e-96
-8.87607e-95
9.28573e-97
3.00331e-99
-1.84931e-98
-4.69965e-99
2.05785e-102
1.31137e-103
1.85046e-104
1.41495e-105
5.84565e-104
1.55237e-106
9.70706e-109
-1.34578e-107
1.03909e-109
6.64847e-112
-7.73131e-112
1.3317e-113
4.54197e-115
-2.20227e-113
1.15645e-115
3.09638e-118
2.83408e-119
-2.50222e-123
2.11028e-121
-2.01856e-120
3.12279e-122
1.43417e-124
-5.24318e-124
1.4919e-125
9.74193e-128
1.24907e-126
3.28605e-128
6.61174e-131
-8.82103e-130
-7.75646e-132
4.47225e-134
9.33424e-134
-2.19539e-134
3.02453e-137
-1.46373e-137
7.33719e-138
2.04447e-140
-3.90891e-139
3.94916e-141
1.37319e-143
2.84638e-145
1.85889e-147
8.77629e-147
9.71082e-148
5.29705e-151
1.20626e-148
-1.62962e-156
6.96835e-09
1.58844e-09
-6.97095e-08
1.32529e-08
9.27033e-09
9.65964e-09
1.33936e-07
1.57571e-08
2.15356e-08
1.29408e-08
6.60768e-09
4.99703e-08
5.9112e-07
7.69354e-07
6.38191e-07
6.16608e-07
6.16199e-07
6.05239e-07
7.31829e-07
-2.2032e-07
-4.21004e-07
-1.05855e-07
-3.00757e-08
-5.75535e-08
-1.87529e-07
-2.90766e-07
-3.2133e-07
-3.24562e-07
-2.41797e-07
-2.19687e-08
-1.38922e-08
-1.59253e-09
-9.67521e-09
1.14841e-07
1.23874e-07
1.46879e-09
1.74965e-10
2.15784e-09
2.43091e-09
-1.31151e-07
6.17201e-10
-1.04695e-10
5.00474e-10
-7.27542e-10
9.30637e-11
-1.46196e-10
1.17486e-14
-1.32386e-17
-1.78684e-17
2.59052e-17
-1.28506e-14
1.30908e-14
-1.19815e-14
-8.44649e-17
1.57704e-15
1.65163e-15
-1.60175e-16
-1.63275e-16
-7.67065e-22
-2.91663e-20
-1.60411e-22
6.28803e-20
-1.7913e-19
5.93325e-20
-1.65738e-19
-2.59754e-25
-2.60508e-24
1.34081e-26
2.94979e-25
1.19278e-26
-3.3139e-29
3.17111e-26
4.22624e-27
-1.6332e-29
7.63918e-29
4.48753e-29
1.16723e-30
8.96854e-33
3.66162e-32
-2.62072e-34
1.95783e-36
9.79204e-36
-8.08655e-39
1.38167e-39
3.67151e-39
-9.74499e-42
9.8493e-43
1.46698e-42
2.49613e-44
6.77538e-46
7.68818e-46
-1.71327e-46
4.64235e-49
5.1945e-49
-1.27138e-49
3.18673e-52
2.19565e-53
-2.35664e-54
2.18483e-55
1.72761e-55
-6.99956e-56
1.49719e-58
5.10185e-60
3.80671e-60
1.02483e-61
4.79248e-63
-1.2224e-62
7.0035e-65
-2.06091e-66
-4.76208e-65
4.78206e-68
3.36164e-68
-1.85899e-68
3.26542e-71
-3.23294e-72
-6.79727e-72
2.22594e-74
6.72012e-75
-4.29506e-75
1.5132e-77
1.50409e-77
-7.89439e-80
1.03062e-80
-1.69248e-81
-2.87527e-82
7.01154e-84
-1.59749e-84
-1.35082e-84
4.75842e-87
1.19282e-87
-6.48142e-94
3.22879e-90
-7.70632e-92
-5.27551e-97
2.18471e-93
6.63681e-94
2.32077e-94
1.47415e-96
2.37473e-97
-3.46254e-97
9.93839e-100
1.97554e-100
-8.30623e-101
6.68924e-103
-7.63249e-105
-7.34437e-104
4.49311e-106
8.13316e-107
3.02756e-107
3.01493e-109
-7.12183e-110
-2.04183e-110
2.01863e-112
-9.77119e-114
9.47608e-115
1.3478e-115
1.90982e-115
3.87745e-116
8.97329e-119
1.09991e-118
2.74753e-120
5.97367e-122
1.69818e-124
5.38218e-123
3.97489e-125
-1.75201e-125
1.70478e-125
2.64048e-128
4.62802e-128
-2.99386e-128
1.75009e-131
1.35574e-131
-5.25047e-132
1.15745e-134
4.74424e-135
-6.0143e-140
7.64019e-138
1.10807e-138
2.11489e-139
5.03251e-141
8.28558e-142
2.26193e-143
3.1887e-144
1.26248e-145
3.54212e-146
-3.71826e-148
-1.12972e-148
-1.85684e-08
1.38404e-08
4.4041e-07
-3.94737e-08
1.84709e-08
-2.87507e-07
-2.57746e-08
3.00101e-08
1.59582e-08
8.41931e-09
4.99622e-08
6.01567e-08
-1.08126e-08
6.16692e-09
-5.17411e-09
-5.45147e-09
4.07347e-08
-5.85845e-09
1.46942e-07