/*--------------------------------*- C++ -*----------------------------------*\
| =========                 |                                                 |
| \\      /  F ield         | OpenFOAM: The Open Source CFD Toolbox           |
|  \\    /   O peration     | Version:  5.0                                   |
|   \\  /    A nd           | Web:      www.OpenFOAM.org                      |
|    \\/     M anipulation  |                                                 |
\*---------------------------------------------------------------------------*/
FoamFile
{
    version     2.0;
    format      ascii;
    class       volScalarField;
    location    "4.2";
    object      p;
}
// * * * * * * * * * * * * * * * * * * * * * * * * * * * * * * * * * * * * * //

dimensions      [1 -1 -2 0 0 0 0];

internalField   nonuniform List<scalar> 
7877
(
100.784
102.289
98.7258
105.343
108.784
94.8959
97.7159
94.0806
91.5987
89.1172
86.602
84.0862
81.5728
79.0884
76.6186
74.1708
71.7394
69.3368
66.9584
64.6044
62.2571
59.9293
57.6311
55.3255
53.044
50.7822
48.5273
46.2698
44.0306
41.8193
39.6035
37.4133
35.2524
33.0818
30.9064
28.7618
26.6712
24.6146
22.5679
20.5145
18.4895
16.5097
14.5335
12.5296
10.5521
8.62368
6.69881
4.76595
2.85497
0.954346
98.5712
101.449
97.8554
101.043
99.8395
98.0755
97.4414
94.5622
91.4191
89.0748
86.5818
84.0787
81.5907
79.1009
76.6208
74.1809
71.7408
69.3544
66.9828
64.6091
62.2624
59.9325
57.6257
55.3268
53.0347
50.7676
48.5164
46.2717
44.0383
41.8228
39.62
37.4282
35.2502
33.0768
30.9108
28.7685
26.6658
24.5991
22.5498
20.5133
18.4947
16.5122
14.537
12.5452
10.5591
8.61408
6.68535
4.76279
2.85523
0.953958
101.486
100.735
89.4625
99.9128
110.253
93.338
96.9727
94.5722
91.5381
89.1257
86.6233
84.0918
81.5874
79.1064
76.6298
74.172
71.7548
69.3755
66.9989
64.6077
62.2625
59.9339
57.6123
55.3204
53.0372
50.7633
48.5072
46.28
44.0556
41.8268
39.6248
37.4274
35.2302
33.0642
30.9174
28.783
26.6661
24.5898
22.5461
20.5143
18.5028
16.5147
14.528
12.545
10.5694
8.61112
6.6795
4.76415
2.85783
0.953844
103.05
101.775
99.8272
82.4746
106.927
91.9174
97.8441
95.4463
91.775
89.2744
86.7032
84.1657
81.6177
79.1153
76.6406
74.1832
71.7589
69.3703
66.9795
64.6128
62.2773
59.9359
57.6191
55.3224
53.0486
50.7732
48.506
46.2846
44.0446
41.815
39.6244
37.4213
35.2239
33.0581
30.9251
28.7995
26.6721
24.5866
22.5486
20.5255
18.5139
16.503
14.5066
12.5401
10.578
8.61439
6.68037
4.7714
2.86423
0.949259
102.455
102.826
101.048
102.541
102.592
100.285
98.7949
97.5569
92.0429
89.3845
86.7737
84.1873
81.6468
79.1289
76.6563
74.1959
71.7755
69.3645
66.9599
64.6145
62.2807
59.936
57.624
55.3271
53.0581
50.7891
48.5162
46.28
44.0334
41.8076
39.6182
37.413
35.2204
33.0562
30.9259
28.8082
26.6809
24.5908
22.5512
20.5314
18.5084
16.4838
14.4875
12.526
10.5746
8.61553
6.68774
4.78599
2.87302
0.947252
101.266
122.472
111.501
101.924
99.0772
96.7832
98.9335
98.1731
92.1302
89.4537
86.8143
84.214
81.6623
79.1457
76.6795
74.2162
71.7902
69.3728
66.96
64.609
62.2842
59.9332
57.6255
55.3375
53.0631
50.8021
48.5265
46.2746
44.0264
41.8017
39.6107
37.4081
35.2138
33.058
30.9292
28.8104
26.6931
24.599
22.5538
20.5318
18.5036
16.4721
14.4706
12.5153
10.5674
8.61901
6.70369
4.80976
2.88367
0.950356
98.6158
107
104.876
103.728
100.923
99.781
99.0514
97.6914
92.0595
89.4328
86.8117
84.2186
81.682
79.1599
76.6738
74.2135
71.7887
69.379
66.9616
64.594
62.2552
59.9291
57.6241
55.3459
53.0698
50.8012
48.5327
46.2705
44.0244
41.8078
39.6094
37.397
35.2073
33.0643
30.9324
28.8045
26.6965
24.6104
22.5554
20.5258
18.4943
16.4664
14.4695
12.5127
10.5629
8.62052
6.70967
4.80915
2.8872
0.958842
102.124
101.614
100.771
106.403
102.719
101.947
98.8571
96.2404
91.9765
89.3876
86.7695
84.1933
81.6668
79.1508
76.6493
74.2126
71.7774
69.3671
66.9743
64.587
62.2515
59.925
57.6221
55.3472
53.0697
50.8051
48.5342
46.2681
44.043
41.8206
39.6058
37.3939
35.212
33.0716
30.9307
28.7939
26.6985
24.6294
22.5618
20.5148
18.4889
16.4737
14.4812
12.5171
10.5624
8.62279
6.70795
4.79833
2.88559
0.963344
101.167
100.78
100.548
101.988
99.7002
100.72
99.3972
95.6082
91.8494
89.3184
86.7228
84.1689
81.6405
79.1311
76.6491
74.206
71.7544
69.3488
66.9678
64.5983
62.2462
59.9183
57.6269
55.3426
53.0718
50.806
48.531
46.2685
44.0323
41.8155
39.5922
37.3932
35.2288
33.0759
30.9232
28.7838
26.6913
24.6295
22.5657
20.5155
18.4875
16.4853
14.5016
12.5201
10.5582
8.62443
6.70089
4.78764
2.87504
0.964405
101.081
100.888
102.355
107.124
75.3223
102.721
99.5058
94.4245
91.768
89.2087
86.6596
84.1157
81.5872
79.1105
76.6334
74.1798
71.7457
69.3454
66.961
64.6005
62.2478
59.9216
57.6305
55.3316
53.0598
50.8016
48.5326
46.2691
44.0295
41.8166
39.5955
37.3999
35.2445
33.0831
30.9122
28.7699
26.6816
24.6247
22.5685
20.5142
18.4883
16.4991
14.5168
12.5186
10.5533
8.62793
6.70412
4.77609
2.86018
0.954513
100.82
99.6272
97.9987
105.262
108.649
94.5064
97.624
94.0806
91.5987
89.1169
86.6021
84.0862
81.5726
79.0885
76.6185
74.1706
71.7393
69.337
66.9585
64.6041
62.2571
59.9294
57.6311
55.3253
53.044
50.7823
48.5273
46.2697
44.0303
41.8193
39.6035
37.4134
35.2525
33.0818
30.9064
28.7617
26.6711
24.6146
22.5678
20.5144
18.4894
16.5098
14.5337
12.5296
10.5521
8.62369
6.69873
4.76593
2.85493
0.954433
99.7912
100.599
94.1165
104.184
100.722
98.2747
97.4751
94.5622
91.4195
89.0746
86.5818
84.0787
81.5906
79.1009
76.6207
74.1808
71.7407
69.3546
66.9827
64.609
62.2624
59.9327
57.6256
55.3267
53.0346
50.7675
48.5163
46.2717
44.0381
41.8228
39.6206
37.4283
35.2502
33.0767
30.9108
28.7685
26.6658
24.5991
22.5496
20.5134
18.4947
16.5123
14.5369
12.545
10.5591
8.61411
6.68525
4.76291
2.85542
0.95391
101.087
100.813
95.578
98.776
109.588
93.8602
96.9602
94.5691
91.5394
89.1255
86.6233
84.0918
81.5874
79.1064
76.6298
74.172
71.7548
69.3753
66.999
64.6077
62.2623
59.9339
57.6122
55.3203
53.0372
50.7632
48.5072
46.2799
44.0558
41.8269
39.6246
37.4273
35.2303
33.0642
30.9175
28.783
26.666
24.5898
22.5461
20.5142
18.5029
16.5148
14.5279
12.545
10.5695
8.61095
6.67948
4.76418
2.85792
0.953839
104.393
102.215
107.209
133.483
129.752
91.1712
97.8409
95.3311
91.7756
89.2741
86.7032
84.1657
81.6176
79.1153
76.6406
74.1832
71.7589
69.3702
66.9794
64.6127
62.2773
59.9359
57.6191
55.3225
53.0484
50.7731
48.5061
46.2847
44.0448
41.8149
39.6243
37.4215
35.2239
33.0581
30.9251
28.7995
26.6721
24.5866
22.5486
20.5255
18.5139
16.503
14.5065
12.5401
10.578
8.61437
6.68026
4.77138
2.86421
0.949122
101.857
101.962
101.135
97.0928
98.6926
99.5146
98.7633
97.5274
92.043
89.3846
86.7737
84.1873
81.6467
79.1289
76.6564
74.1959
71.7754
69.3645
66.9597
64.6146
62.2808
59.9359
57.6238
55.3272
53.0579
50.7892
48.5163
46.2799
44.0333
41.8075
39.6182
37.413
35.2204
33.0561
30.9259
28.8081
26.6809
24.5907
22.5513
20.5317
18.5083
16.4838
14.4874
12.526
10.5746
8.61551
6.68767
4.78594
2.87301
0.947302
115.298
102.316
100.107
99.3044
99.4921
99.785
98.8798
98.2016
92.1304
89.4538
86.8142
84.2139
81.6625
79.1457
76.6795
74.2162
71.7902
69.3729
66.9599
64.6088
62.284
59.9328
57.6254
55.3375
53.0632
50.8022
48.5264
46.2745
44.0264
41.8018
39.6107
37.408
35.2137
33.0581
30.9292
28.8103
26.6931
24.599
22.5537
20.5318
18.5035
16.472
14.4706
12.5153
10.5672
8.61899
6.70367
4.80979
2.88339
0.950328
103.723
108.685
105.85
104.029
101.038
99.8232
99.0246
97.5927
92.0602
89.4327
86.8117
84.2185
81.6819
79.1599
76.6738
74.2134
71.7886
69.3789
66.9616
64.5941
62.2552
59.929
57.6241
55.3459
53.0697
50.8012
48.5326
46.2705
44.0246
41.8078
39.6097
37.3969
35.2072
33.0645
30.9324
28.8041
26.6965
24.6104
22.5554
20.5258
18.4943
16.4662
14.4695
12.5126
10.5628
8.6205
6.70976
4.80924
2.88712
0.958948
102.221
104.628
99.3278
100.574
102.821
99.8992
98.8104
96.2087
91.9772
89.3874
86.7695
84.1932
81.6668
79.1508
76.6492
74.2126
71.7776
69.3669
66.9746
64.5869
62.2514
59.9252
57.6221
55.3472
53.0697
50.8053
48.5344
46.268
44.0427
41.8206
39.6057
37.3936
35.212
33.0716
30.9307
28.7939
26.6985
24.6293
22.5618
20.5147
18.4888
16.4737
14.4812
12.5171
10.5623
8.62277
6.70795
4.79831
2.88566
0.963466
101.207
100.837
100.569
100.822
100.819
100.422
99.4009
95.6049
91.85
89.3182
86.7228
84.1689
81.6405
79.131
76.6492
74.2062
71.7545
69.3486
66.9679
64.5984
62.2462
59.9183
57.6269
55.3426
53.0717
50.806
48.5309
46.2686
44.0323
41.8155
39.5922
37.3931
35.2288
33.0759
30.9231
28.7838
26.6913
24.6294
22.5655
20.5155
18.4876
16.4854
14.5015
12.52
10.5582
8.62438
6.70083
4.7876
2.87512
0.964406
101.003
100.904
102.061
104.712
102.993
102.612
99.5334
94.4249
91.7681
89.2087
86.6597
84.1156
81.587
79.1105
76.6334
74.1801
71.7456
69.3453
66.9611
64.6004
62.2477
59.9216
57.6304
55.3316
53.0599
50.8015
48.5325
46.2691
44.0294
41.8165
39.5953
37.3999
35.2447
33.0831
30.9121
28.77
26.6816
24.6247
22.5684
20.5142
18.4883
16.499
14.5168
12.5185
10.5533
8.62795
6.70398
4.77607
2.86025
0.954501
100.838
100.809
103
105.336
108.743
94.4081
97.6382
94.081
91.5986
89.1168
86.6023
84.0864
81.5724
79.0884
76.6185
74.1703
71.7393
69.337
66.9585
64.6039
62.2569
59.9294
57.631
55.3251
53.0441
50.7822
48.527
46.2697
44.0302
41.8193
39.6036
37.4134
35.2525
33.0815
30.9063
28.7617
26.671
24.6146
22.5678
20.5143
18.4893
16.5098
14.5338
12.5297
10.5521
8.62362
6.6986
4.76585
2.85483
0.954437
101.354
97.4286
96.7637
101.375
99.7079
98.1704
97.4711
94.5624
91.4189
89.0747
86.5817
84.0786
81.5906
79.1008
76.6207
74.1806
71.7407
69.3547
66.9826
64.6088
62.263
59.9327
57.6249
55.3261
53.0345
50.7674
48.5162
46.2716
44.038
41.8227
39.6206
37.4282
35.25
33.0766
30.9107
28.7684
26.6657
24.5996
22.5494
20.5124
18.4946
16.5123
14.5368
12.5443
10.5592
8.6141
6.68516
4.76283
2.85548
0.953715
101.047
99.8043
115.041
103.331
111.363
94.8343
96.9538
94.5713
91.5394
89.1256
86.6232
84.0917
81.5873
79.1063
76.6297
74.1719
71.7547
69.375
66.999
64.6076
62.2621
59.9338
57.6121
55.3202
53.0372
50.7631
48.5072
46.2799
44.0558
41.8269
39.6244
37.4269
35.2303
33.0643
30.9175
28.7829
26.6658
24.5898
22.546
20.5141
18.5029
16.5149
14.528
12.5447
10.5694
8.61086
6.67937
4.76414
2.85787
0.953522
102.848
103.605
103.573
107.56
89.4769
93.0308
97.8341
95.3389
91.775
89.2735
86.7031
84.1656
81.6176
79.1152
76.6405
74.1831
71.7588
69.37
66.9793
64.6125
62.2774
59.9358
57.6192
55.3229
53.0481
50.7729
48.5062
46.2847
44.0448
41.8148
39.6242
37.4214
35.2238
33.058
30.9251
28.7993
26.672
24.5866
22.5486
20.5254
18.5139
16.5029
14.5063
12.5402
10.578
8.61429
6.68016
4.77134
2.86415
0.948788
101.598
101.981
101.582
94.4358
98.8258
99.2848
98.7683
97.5315
92.0423
89.3848
86.7737
84.1872
81.6465
79.1288
76.6565
74.1959
71.7754
69.3644
66.9596
64.6146
62.2808
59.9359
57.6232
55.3275
53.0576
50.7891
48.5164
46.2799
44.0332
41.8073
39.6182
37.413
35.2203
33.0561
30.9258
28.8081
26.6809
24.5907
22.5512
20.5319
18.5083
16.4838
14.4874
12.5261
10.5745
8.61544
6.68782
4.78584
2.87277
0.947201
107.058
101.331
99.7979
100.478
99.9004
99.9095
98.8991
98.1959
92.1296
89.4539
86.814
84.2138
81.6628
79.1456
76.6794
74.2161
71.7901
69.3729
66.9597
64.6086
62.2842
59.9325
57.6253
55.3374
53.0632
50.8021
48.5263
46.2743
44.0263
41.8024
39.6108
37.4079
35.2135
33.0589
30.9292
28.8102
26.693
24.5989
22.5535
20.532
18.5034
16.4717
14.4706
12.5154
10.567
8.61891
6.70368
4.80978
2.88296
0.950293
107.104
118.343
102.571
104.551
102.914
99.6856
99.0049
97.5723
92.0596
89.4327
86.8116
84.2184
81.6819
79.1598
76.6737
74.2134
71.7885
69.3787
66.9615
64.594
62.2554
59.929
57.624
55.3458
53.0695
50.8011
48.5325
46.2707
44.0246
41.8079
39.6095
37.3967
35.2072
33.0644
30.9324
28.804
26.6965
24.6103
22.5553
20.5258
18.4942
16.466
14.4694
12.5125
10.5626
8.62043
6.70998
4.80893
2.8866
0.959061
103.619
104.023
101.192
100.905
101.419
99.8985
98.8285
96.2087
91.9768
89.3874
86.7694
84.1932
81.6667
79.1507
76.6491
74.2125
71.7778
69.3666
66.9746
64.587
62.2514
59.9251
57.6223
55.3471
53.0695
50.8054
48.5343
46.2678
44.0427
41.8205
39.6055
37.3935
35.2119
33.0716
30.9306
28.7938
26.6985
24.6292
22.5617
20.5146
18.4887
16.4737
14.4812
12.517
10.5622
8.6227
6.70789
4.79827
2.88562
0.963473
103.862
101.205
100.581
100.447
100.502
102.561
99.4025
95.6052
91.8497
89.3182
86.7227
84.1688
81.6404
79.131
76.6479
74.2064
71.7546
69.3484
66.968
64.5983
62.2461
59.9185
57.6269
55.3425
53.0716
50.8059
48.5306
46.2686
44.033
41.8157
39.5921
37.393
35.2286
33.0758
30.9229
28.7838
26.6913
24.6293
22.5655
20.5154
18.4876
16.4855
14.5014
12.5198
10.5581
8.62429
6.70073
4.78753
2.87505
0.964313
100.676
102.312
99.7713
98.7663
103.958
102.803
99.5284
94.4248
91.7679
89.2087
86.6597
84.1154
81.5867
79.1105
76.6334
74.1803
71.7455
69.3452
66.9611
64.6003
62.2476
59.9214
57.6304
55.3316
53.0599
50.8015
48.5324
46.2691
44.0293
41.8164
39.5949
37.4001
35.245
33.0829
30.9119
28.7701
26.6817
24.6246
22.5684
20.5141
18.4882
16.499
14.5166
12.5184
10.5533
8.6279
6.70378
4.77599
2.86028
0.954434
97.0673
98.5229
97.4997
94.5243
97.0904
98.4737
97.5079
97.3904
96.8175
96.576
98.2994
97.3917
96.9232
96.5486
96.8243
96.9378
96.8355
93.5653
96.7139
96.1561
96.8282
97.4536
99.1791
98.7433
92.2639
97.3244
100.304
98.5538
98.8844
99.517
99.0907
99.6353
98.8271
103.055
99.0571
99.1063
100.691
99.1011
100.055
99.0922
100.954
99.107
99.057
101.81
99.0603
99.7329
99.0941
101.099
99.0623
98.9986
99.957
99.384
99.858
98.9957
99.8992
99.375
99.6801
102.184
100.153
100.723
99.6782
102.199
100.155
100.027
88.7272
97.5009
102.673
100.027
88.8735
97.5099
97.0921
98.4841
97.5063
94.4256
97.0942
98.4643
97.5041
97.3906
96.448
96.5717
98.1997
97.3833
97.9865
96.5704
96.8238
95.9521
96.7871
94.7567
96.7343
95.6705
96.8425
97.2073
100.299
98.6436
92.8652
97.239
98.1506
98.4764
98.8276
101.272
99.0295
99.6444
98.8812
99.7811
99.0997
99.077
100.311
99.1254
99.9023
99.0944
100.23
99.1127
99.7573
100.994
99.0719
99.5794
99.1343
100.453
99.0788
98.997
99.8595
99.3729
100.219
98.9976
99.6412
99.3754
99.68
102.224
100.155
102.763
99.6861
102.299
100.157
100.025
89.053
97.5096
102.526
100.02
89.0764
97.5122
97.0925
98.4408
97.5053
94.3823
97.0705
98.4779
97.5015
97.383
97.9532
96.5842
98.159
97.3811
98.3336
96.5763
96.84
95.6428
96.9068
95.0377
96.7968
95.7783
96.8898
97.191
98.2742
98.5473
107.603
97.3511
98.6336
98.4171
98.9079
99.8069
99.0476
99.4815
98.8487
100.286
99.0647
99.0821
100.207
99.1352
99.9479
99.1003
102.719
99.1152
99.0335
98.4552
99.0502
99.6031
98.8971
98.747
99.0658
98.9972
99.8213
99.3801
99.9107
98.9929
99.5788
99.3783
99.6819
102.319
100.159
104.2
99.6909
102.304
100.157
100.02
89.2304
97.5131
102.879
100.02
89.337
97.5038
99.3092
102.601
99.4669
108.71
99.0299
101.756
99.2854
97.0546
95.9619
97.0178
94.5112
97.0896
97.1038
95.8318
96.0432
97.6949
95.7828
97.6395
96.0514
97.71
95.7891
97.9969
108.029
103.978
99.9037
99.265
108.561
109.293
97.3851
97.7014
99.9443
97.9791
97.6924
98.032
97.3233
95.7218
96.9551
95.4124
97.4723
95.7323
96.959
95.4154
86.1329
114.441
99.8159
109.609
83.6393
113.006
105.234
96.1671
96.4358
97.5888
93.476
96.3388
97.1886
95.8285
95.6209
97.1282
96.6946
96.9655
95.6201
97.0894
96.6086
21.3754
97.0888
101.002
120.812
126.979
99.1927
97.3419
97.9407
95.6823
103.129
93.4247
95.6837
103.454
97.9033
97.2166
98.4731
98.2666
97.849
97.256
98.4772
98.2462
100.325
98.9085
101.46
98.7239
99.4112
98.8191
105.579
99.4704
99.1412
98.6285
99.5989
99.1348
97.4798
100.003
98.3144
98.9327
98.5622
98.7689
98.3246
98.9049
98.5672
99.2198
100.951
102.568
99.2189
105.289
99.8127
100.701
99.2165
99.4999
99.8176
97.9584
99.2056
99.2782
99.2138
98.6017
98.983
98.6261
98.9004
98.6049
98.9682
98.6384
98.4955
103.457
99.9187
100.527
97.1176
100.79
100.016
98.9004
99.6103
101.859
99.7947
99.5705
102.931
98.8733
98.7099
98.9873
98.3034
99.0425
98.6838
98.9821
98.3421
98.9058
115.885
103.563
102.04
99.0994
107.213
101.021
99.1023
98.9361
98.5281
99.6723
98.9264
98.6133
99.1988
98.044
99.1814
97.179
98.8244
97.9609
99.1656
97.1929
98.0463
95.8109
102.017
100.434
118.784
95.2486
102.07
100.279
100.042
103.788
100.91
100.042
101.068
100.273
97.0021
99.6955
96.7104
99.4003
97.0056
99.7195
96.7205
104.598
89.94
55.7924
74.5955
105.049
134.456
63.6247
101.257
101.412
102.933
102.713
101.413
102.92
101.33
96.5292
97.9723
96.115
99.5328
96.5335
97.9561
96.1209
99.3764
101.923
99.3042
108.748
99.1817
102.063
99.3527
96.9882
95.7936
96.8309
94.4861
96.9986
96.884
95.7869
96.05
97.7148
95.7859
97.6211
96.0497
97.7207
95.7855
102.697
108.021
98.5715
99.7222
99.6684
106.692
99.1265
97.3067
97.6769
99.0218
98.2864
97.2601
97.7044
98.9878
95.7306
96.9587
95.4114
97.4734
95.73
96.9562
95.412
127.206
116.703
105.002
110.261
100.743
114.929
99.7496
96.1922
96.3207
96.7986
94.2215
95.4456
96.3146
96.5541
95.6191
97.0878
96.596
96.9522
95.6192
97.0746
96.5932
103.852
99.3798
101.346
90.6628
98.9788
89.5534
99.723
97.9508
95.937
106.509
95.0513
97.947
96.0015
100.138
97.2608
98.5026
98.2517
97.8336
97.259
98.5598
98.2474
99.7817
98.9747
103.738
98.7421
98.6879
98.9905
102.599
99.846
99.1119
101.393
99.6397
99.2679
99.0762
101.211
98.3268
98.9152
98.5656
98.8197
98.3242
98.9117
98.565
100.394
100.51
99.9078
99.4973
99.9754
99.8739
100.013
99.2314
99.4204
99.5019
100.396
99.2239
99.7899
99.4547
98.6057
98.9738
98.6397
98.9383
98.6042
98.9673
98.6367
97.458
100.831
99.7796
98.1095
99.8397
101.652
99.6205
98.7423
99.6398
101.388
99.7113
98.762
99.6134
104.428
98.6916
98.977
98.3481
99.0159
98.6861
98.9835
98.3468
99.0846
101.622
101.467
101.116
99.5465
102.76
100.99
99.1652
99.0265
98.878
99.9925
99.1439
99.0178
99.0619
97.9534
99.1984
97.183
98.825
97.9549
99.1655
97.183
112.906
136.435
102.684
100.451
115.498
112.973
102.196
100.792
100.116
101.112
105.554
100.538
100.113
101.218
97.0032
99.7262
96.7188
99.4023
97.0035
99.7269
96.7198
105.994
135.644
53.5207
104.329
107.112
99.4006
62.2283
101.307
101.397
103.142
102.573
101.287
101.422
103.197
96.529
97.9519
96.1179
99.531
96.5289
97.9531
96.1179
91.0069
101.387
99.4145
110.288
90.8264
101.775
99.4206
96.8782
95.827
96.7549
94.3989
96.87
96.9316
95.7874
96.051
97.7152
95.7883
97.7174
96.0428
97.693
95.782
99.3255
103.821
100.832
100.504
99.5268
103.477
102.191
97.602
97.6783
98.7494
98.1743
97.5489
97.6759
98.7932
95.7311
96.9559
95.4163
97.4381
95.7197
96.9525
95.4133
99.6638
145.804
101.753
104.068
98.0769
94.8095
98.7424
95.6343
96.2821
96.7527
94.9482
95.9595
96.3157
96.9181
95.6213
97.0771
96.6042
96.9575
95.6228
97.1114
96.6916
102.169
95.7364
99.5228
90.4848
99.3513
97.6401
100.36
98.1392
96.0232
108.52
108.375
98.0765
96.124
108.485
97.254
98.5241
98.2439
97.8347
97.2173
98.5037
98.273
99.0571
99.0139
102.032
98.7596
99.5548
99.793
104.678
99.2358
99.0222
100.355
99.2538
99.2358
99.0155
100.347
98.3224
98.9037
98.5675
98.7758
98.3119
98.9454
98.5614
99.8872
99.7862
99.7691
100.009
99.4785
98.2939
100.431
99.357
99.5712
99.5643
100.127
99.3857
99.5335
101.278
98.6069
98.9928
98.636
98.8987
98.6019
99.0045
98.6241
99.7165
101.322
99.6093
105.368
102.998
102.562
100.02
99.049
99.4412
97.4239
99.7642
98.3811
99.4414
97.0154
98.6817
98.9781
98.341
99.0244
98.7082
98.9861
98.304
99.8593
98.6636
100.965
100.297
99.3863
98.8017
101.762
99.1971
98.961
100.244
99.8815
99.1491
98.9995
99.451
97.9537
99.1941
97.1919
98.8628
98.0416
99.1883
97.1779
114.941
104.007
102.164
101.112
120.349
103.785
102.005
100.723
100.14
104.231
102.655
100.618
100.138
103.869
97.0057
99.7245
96.7219
99.4006
97.0018
99.6955
96.7107
108.645
103.064
64.4838
104.693
102.134
106.145
69.5577
101.368
101.392
103.551
102.421
101.366
101.4
103.658
96.5329
97.9593
96.121
99.5059
96.5285
97.9725
96.1151
96.947
96.4163
97.2864
97.0824
97.3008
96.9992
96.4133
97.4111
97.7547
97.8418
98.4741
97.7409
97.8412
97.4205
97.2746
97.2956
97.5983
97.5081
97.3071
97.6036
97.2781
97.0442
94.4099
95.806
96.8174
96.8455
97.0195
95.825
96.9531
97.0873
96.4092
97.3073
97.3057
96.9645
96.4099
97.4093
98.4816
97.737
97.8404
97.7398
97.8401
97.4127
97.279
97.5079
97.307
97.5965
97.3068
97.5931
97.2798
97.2864
97.5001
97.2411
97.3957
97.4985
97.2369
97.2787
97.5481
98.5972
95.5319
97.2123
98.8351
95.5205
97.498
97.2885
97.076
96.4688
96.5425
97.0452
96.4299
97.3984
97.2069
98.0564
97.6698
99.7558
97.6848
97.8596
97.2191
97.3166
97.3949
97.5018
97.2361
97.4986
97.2359
97.2569
97.7362
103.104
98.8592
95.7047
98.2971
95.5535
97.552
97.3126
96.5739
97.0472
96.4484
97.087
96.4293
97.3294
96.5195
96.7862
96.5018
96.7937
96.7822
96.5026
96.527
95.7254
100.663
95.9917
97.0555
110.731
96.0679
95.688
97.2412
97.1273
96.8526
96.819
96.9361
96.8534
97.1886
95.5495
93.3423
96.2799
97.4163
96.3537
97.2336
95.4467
96.5069
96.8667
96.7842
96.4515
96.8123
96.4493
96.5313
96.0308
96.9479
98.8144
95.9545
97.4422
95.9552
96.0596
97.1623
96.9675
96.8504
96.8707
96.8298
96.855
97.1916
98.24
97.1162
98.0472
97.4184
97.0103
97.821
98.2421
99.5493
106.302
98.7669
99.2319
104.481
98.7602
99.3968
99.0063
98.5324
98.6999
98.5717
98.3551
98.6785
99.0241
97.9611
90.7608
95.8615
104.332
95.811
106.917
97.989
98.2353
97.3232
97.0228
97.7551
97.0133
97.8399
98.2273
99.4577
100.108
105.75
98.7011
105.928
98.7355
99.638
98.99
98.5725
98.3775
98.6951
98.3926
98.6655
98.9926
99.2072
99.0267
98.9282
98.8793
99.0062
98.9058
99.2113
99.6429
101.049
99.4743
99.5007
100.82
99.4754
99.6366
99.4104
99.0973
99.2969
99.0381
99.0588
99.2738
99.4697
99.7321
99.4875
99.1142
101.336
99.1208
102.234
99.793
99.2014
98.9638
99.0043
98.8909
99.007
98.9057
99.2055
99.6363
99.4506
101.288
99.5504
100.94
99.4621
99.6523
99.4084
99.0341
99.0565
99.2703
99.0657
99.2751
99.4616
99.0458
99.1656
99.0294
99.0841
99.1724
99.0167
99.0459
99.4217
100.558
99.6974
100.732
100.273
99.6138
99.4054
99.2262
99.0853
99.1405
99.0992
99.1089
99.1425
99.2209
99.1697
103.258
99.4728
99.5493
99.1878
99.4604
99.22
99.0434
99.071
99.1967
99.0305
99.1922
99.0148
99.0432
99.3772
100.45
100.172
99.5295
100.269
99.5754
99.3787
99.2141
99.104
99.08
99.152
99.1209
99.1519
99.2099
99.0909
99.4066
99.1162
99.119
99.4378
99.1081
99.09
100.006
104.151
99.3685
102.406
101.803
99.3732
99.5982
99.0552
99.1072
99.2493
99.0808
99.1309
99.2377
99.0906
98.7866
99.7049
99.5829
105.09
99.5612
102.322
98.7618
99.0863
99.3546
99.3546
99.0932
99.3605
99.0864
99.0933
99.2422
101.425
102.065
99.2493
101.849
99.5588
99.302
99.0873
99.0747
99.1061
99.2194
99.116
99.2216
99.0822
99.1862
99.0903
99.1458
98.9968
99.0443
99.1446
99.2026
99.4953
99.3777
99.5626
99.9433
99.5852
99.5608
99.4959
99.329
99.1793
99.4066
99.3746
99.1813
99.4162
99.3275
99.1012
99.822
98.9923
98.7141
98.9258
98.6111
99.1196
99.1802
98.9986
99.0536
99.1436
99.0412
99.1483
99.1815
99.4901
99.9242
99.1893
99.555
99.1668
99.5629
99.4837
99.3247
99.3741
99.1794
99.4109
99.1835
99.4229
99.3108
100.065
99.6321
99.8815
99.6787
99.6353
99.8677
100.2
98.8034
102.202
101.794
102.187
102.107
101.412
101.088
100.873
100.014
100.591
100.155
100.021
100.489
101.178
100.33
100.454
100.175
101.164
100.043
101.159
100.337
100.068
99.6942
99.6296
99.8871
99.6324
99.8678
100.134
105.252
102.184
102.196
101.392
102.253
101.405
103.831
100.756
100.155
99.9934
100.589
99.9728
100.482
100.78
100.161
100.444
99.6051
100.031
100.445
99.6121
100.161
99.8926
99.4494
94.506
88.7677
99.6292
99.88
94.5064
98.8429
98.7171
96.5269
97.5101
98.7264
98.854
96.514
101.273
102.691
101.388
103.083
101.448
103.099
101.267
100.182
100.029
100.45
99.6084
100.451
99.6095
100.138
99.9571
88.8514
102.312
94.5105
100.15
100.012
94.5607
98.8381
97.5103
98.7256
96.451
98.726
98.8333
96.5927
96.9671
96.4232
97.3081
97.094
96.9671
97.3082
96.4102
97.4138
97.762
97.8641
98.4913
97.4146
97.7848
97.8733
97.2744
97.3069
97.5924
97.5041
97.2801
97.3078
97.5911
96.9671
94.4427
95.7989
96.9563
96.8709
96.9513
95.7855
96.9683
97.0946
96.4013
97.3068
97.308
96.9685
96.4186
97.4105
98.5098
97.7639
97.8333
97.7922
97.8399
97.4052
97.2743
97.5037
97.3094
97.5921
97.3079
97.5981
97.2742
97.2255
97.5004
97.2371
97.3876
97.2444
97.4972
97.2396
97.5329
98.8317
95.6379
96.3539
97.5243
98.636
95.9929
97.3138
97.0594
96.4461
96.5624
97.3269
97.065
96.4402
97.362
98.0985
97.6872
98.5965
97.7129
98.5424
97.5707
97.2184
97.3857
97.4986
97.2452
97.4984
97.2434
97.2667
97.5319
100.913
99.5519
95.9319
98.4954
95.9635
97.5452
97.3156
96.5691
97.0559
96.4609
97.0613
96.4568
97.292
96.7009
96.7729
96.4125
96.828
96.5302
96.7668
96.4295
96.4336
98.9396
96.2333
96.8879
95.4076
93.3976
96.2952
97.2777
96.7547
96.8715
96.8067
97.2428
96.7949
96.8797
95.8677
94.5317
96.2898
96.6031
96.3091
96.3646
95.7845
96.4652
96.7528
96.7175
96.4104
96.7434
96.4183
96.4572
96.5878
97.1707
93.989
96.2821
94.0042
96.4005
96.65
97.4775
96.8266
96.8838
96.8739
96.8197
96.8693
97.4194
98.2044
97.0452
97.7546
97.2044
98.219
97.0568
97.755
99.3756
105.126
98.6533
104.697
99.4772
106.42
98.6045
99.0172
98.3692
98.8085
98.5529
98.9892
98.2908
98.7305
97.9753
99.8494
96.0372
99.803
96.0177
99.9332
98.0743
98.1954
97.3083
97.0773
97.7168
97.0763
97.815
98.191
99.3335
102.115
99.0289
98.4769
105.89
98.5348
99.2641
98.9479
98.5662
98.3333
98.7266
98.4238
98.6972
98.9404
99.2002
99.0035
98.8931
98.8496
99.2006
99.0144
98.8992
99.5349
103.631
99.5048
101.475
99.5455
100.564
99.5157
99.4376
99.0544
99.2738
99.0686
99.424
99.097
99.2857
99.5545
99.6581
99.038
100.265
99.0585
100.395
99.5185
99.2041
98.8885
99.016
98.9054
99.0038
98.8821
99.2006
99.5257
101.62
99.3595
99.5608
101.393
99.531
99.5293
99.4331
99.0381
99.0933
99.3038
99.0583
99.2931
99.4499
99.0355
99.2203
99.0171
99.0846
99.0371
99.1948
99.0275
99.3856
100.19
99.5043
100.177
99.3892
99.8933
99.3488
99.2438
99.1057
99.1534
99.1193
99.2513
99.0968
99.1549
99.2289
100.335
99.4653
99.4565
99.4844
99.452
99.2506
99.0297
99.086
99.2366
99.0245
99.2206
99.0141
99.0256
99.3606
100.32
99.7306
99.5449
99.7232
99.3132
99.4099
99.2648
99.1107
99.1005
99.1336
99.1178
99.1609
99.2468
99.0757
99.3332
99.0954
99.3404
99.1622
99.3331
99.1034
99.3571
101.758
99.2207
100.888
99.3151
101.458
99.1988
99.0865
99.141
99.2114
99.057
99.086
99.1251
99.193
98.6488
99.7
99.4455
98.0162
99.478
97.2103
98.6667
99.0931
99.6091
99.343
99.105
99.3871
99.108
99.0766
99.1256
101.879
101.985
99.1862
101.437
99.1902
99.3601
99.1151
99.0605
99.0992
99.1618
99.1182
99.1656
99.0958
99.1786
99.0549
99.1394
98.9964
99.1886
99.0581
99.1425
99.48
99.1923
99.5372
99.7911
99.4869
99.3687
99.5238
99.302
99.1801
99.4071
99.3764
99.304
99.1807
99.4188
99.1746
99.9974
98.9669
99.9289
98.9816
99.5224
99.1784
99.1735
99.0038
99.0507
99.141
99.0524
99.1416
99.1714
99.4699
99.5011
99.1987
99.5191
99.2353
99.5138
99.499
99.2949
99.3742
99.1844
99.4078
99.1911
99.4309
99.2811
100.254
99.6358
99.8614
99.6745
100.11
99.649
99.8613
102.926
102.211
101.69
102.264
102.721
102.302
102.013
101.13
99.9836
100.733
100.159
101.019
100.027
100.814
100.713
102.66
100.141
106.171
100.125
101.615
100.458
100.095
99.6753
99.6747
99.8694
99.6637
99.9176
100.188
102.72
102.276
102.356
102.092
102.628
101.321
103.676
101.351
100.158
100.02
100.627
100.022
100.551
101.417
100.151
100.441
99.607
100.021
100.216
100.423
99.6081
100.178
102.515
94.5083
93.2256
100.072
106.392
94.5283
98.8383
98.7254
96.4543
97.5105
98.8545
98.7264
96.512
101.313
102.581
101.471
103.68
101.401
103.23
101.397
100.151
100.02
100.438
99.6101
100.423
99.6095
100.135
100.27
89.0757
103.381
94.5336
102.625
100.349
94.5317
98.8735
97.5112
98.7287
96.4613
98.7273
98.8539
96.4362
96.9378
96.402
97.3054
97.0896
96.9732
97.3036
96.3966
97.3986
97.7696
97.8397
98.4619
97.3964
97.8016
97.8451
97.2682
97.3096
97.5896
97.5073
97.2753
97.3116
97.5813
96.8779
94.3844
95.8881
96.9355
96.7579
96.8768
95.7756
96.937
97.0851
96.408
97.2875
97.3014
96.9938
96.3937
97.3969
98.4712
97.7915
97.8749
97.7983
97.865
97.4222
97.2675
97.5105
97.301
97.5874
97.3128
97.5797
97.2732
97.236
97.5025
97.2491
97.3832
97.2178
97.492
97.2454
97.5751
98.5274
95.9186
97.8475
97.5638
98.5446
95.8809
97.2873
97.07
96.4789
96.5692
97.297
97.0479
96.4949
97.607
98.1566
97.694
99.025
97.6815
98.9267
97.6108
97.2547
97.386
97.4975
97.2451
97.4906
97.2455
97.2849
97.5904
97.8384
98.6007
95.8619
98.6032
95.8263
97.6633
97.2869
96.5673
97.0828
96.5072
97.058
96.5059
97.3119
96.4821
96.7096
96.4106
96.7937
96.4607
96.7238
96.4913
96.395
97.6057
96.6137
101.92
99.2272
98.1254
96.2583
97.2985
96.7212
96.8863
96.8469
97.3398
96.7699
96.8968
95.6058
95.0142
96.283
96.9309
96.2803
96.4638
95.7117
96.4886
96.7795
96.7433
96.495
96.7297
96.4545
96.4916
96.7119
95.8649
101.791
96.2561
104.059
96.2324
96.6112
97.3663
96.8418
96.9831
96.8938
96.862
96.8737
97.4421
98.1789
97.0883
97.7262
97.168
98.1878
97.0986
97.7263
99.2641
99.3137
98.4086
98.4582
99.2595
99.4799
98.3851
98.9178
98.3351
98.8273
98.4437
98.9389
98.3355
98.7786
98.1911
102.041
96.4076
104.892
96.5324
104.427
98.2139
98.1793
97.326
97.1039
97.8975
97.093
97.7273
98.1914
99.2672
98.6358
99.6561
98.3952
99.4456
98.3988
99.2508
98.9261
98.5026
98.437
98.7716
98.34
98.7484
98.9221
99.205
99.0087
98.8917
98.8436
99.2044
99.0152
98.9052
99.5545
100.33
99.5584
100.404
99.5285
98.7871
99.5831
99.4045
99.0677
99.2984
99.0537
99.4168
99.076
99.3013
99.2338
99.3189
99.1632
100.277
99.0129
100.277
99.6965
99.1647
98.8406
99.0091
98.9264
98.9969
98.8891
99.3163
99.5233
100.471
98.9572
99.9772
99.2829
99.5804
99.5151
99.3981
99.0678
99.0882
99.3018
99.0693
99.2997
99.4652
99.061
99.2142
99.0118
99.1026
99.0471
99.2094
99.0244
99.3535
100.1
99.3322
100.184
99.4391
100.074
99.4301
99.2204
99.1173
99.1357
99.1083
99.2386
99.0998
99.1555
99.2577
99.9836
99.5497
100.129
99.562
100.107
99.2755
99.0281
99.087
99.2053
99.0212
99.2074
99.0115
99.0331
99.3937
102.823
100.847
99.4625
99.7147
99.3112
99.4619
99.2664
99.1066
99.1268
99.1447
99.101
99.1591
99.2563
99.2039
99.341
99.1014
98.7997
99.0836
99.3423
99.1135
99.1069
100.743
99.2497
100.173
99.5085
99.7347
99.2797
99.1509
99.0918
99.1675
99.0568
99.1563
99.0896
99.1697
99.465
99.5544
99.4468
97.6924
99.4334
97.1243
99.067
99.2002
99.0774
99.3443
99.1151
99.3454
99.1118
99.1744
99.9874
98.74
99.6391
99.3628
99.7619
99.7065
99.6991
99.1861
99.051
99.1029
99.198
99.1096
99.2694
99.1331
99.1665
99.0507
99.151
98.9989
99.1764
99.0548
99.1476
99.4406
99.2718
99.5107
99.2692
99.4502
99.1735
99.5296
99.2881
99.1829
99.405
99.3765
99.2797
99.1859
99.4151
99.2435
99.8558
99.0862
99.9835
99.0675