/*--------------------------------*- C++ -*----------------------------------*\
| =========                 |                                                 |
| \\      /  F ield         | OpenFOAM: The Open Source CFD Toolbox           |
|  \\    /   O peration     | Version:  5.0                                   |
|   \\  /    A nd           | Web:      www.OpenFOAM.org                      |
|    \\/     M anipulation  |                                                 |
\*---------------------------------------------------------------------------*/
FoamFile
{
    version     2.0;
    format      ascii;
    class       surfaceScalarField;
    location    "4.2";
    object      phi;
}
// * * * * * * * * * * * * * * * * * * * * * * * * * * * * * * * * * * * * * //

dimensions      [0 3 -1 0 0 0 0];

internalField   nonuniform List<scalar> 
23584
(
1.87526e-09
2.51771e-09
-3.96806e-09
1.44823e-09
2.46627e-09
-2.78053e-09
2.88903e-09
-1.67747e-09
-6.80695e-10
-4.3843e-10
6.09801e-11
1.97572e-09
-1.2886e-09
9.66438e-11
1.57381e-09
-3.3929e-09
2.57517e-09
1.66559e-10
-4.8202e-10
-6.63178e-10
4.36882e-10
-1.26638e-09
-4.39197e-09
2.15758e-09
-5.8478e-10
1.71157e-10
2.80242e-10
5.81191e-11
-1.76766e-10
-5.48116e-12
1.31034e-10
5.30161e-11
1.47669e-09
-2.72678e-12
-3.65235e-11
-2.65437e-10
-2.58806e-10
-4.6133e-10
-4.51842e-10
-6.74406e-12
-5.18525e-12
-9.9959e-12
1.4389e-09
2.01653e-11
-7.6191e-13
1.42954e-09
-6.55324e-13
-3.84968e-13
1.42287e-09
-5.1691e-13
5.07861e-15
1.4208e-09
-1.47452e-12
-1.31293e-13
1.42054e-09
-1.69213e-12
1.97035e-13
1.4185e-09
-1.19982e-12
-4.12835e-13
1.4182e-09
-8.04241e-13
7.89292e-14
1.41784e-09
8.48094e-13
-4.40654e-13
1.41822e-09
-4.35051e-13
-2.88497e-14
1.41756e-09
-5.38312e-13
-1.08796e-13
1.41755e-09
-5.40916e-13
-1.51491e-14
1.41762e-09
-1.31987e-13
-1.47126e-13
1.41802e-09
7.96627e-14
-1.12316e-12
1.41792e-09
1.2917e-13
-8.06804e-14
1.41783e-09
-1.75257e-14
1.30554e-13
1.41795e-09
-3.1602e-13
8.1669e-14
1.41818e-09
2.55653e-13
-7.36889e-14
1.41772e-09
-1.21784e-12
-5.11355e-13
1.41798e-09
3.51642e-13
-4.35009e-13
1.41809e-09
1.12005e-13
5.46221e-14
1.41772e-09
6.76473e-13
-1.81683e-12
1.41798e-09
-3.62257e-13
5.76573e-13
1.41714e-09
-1.1465e-12
3.89228e-12
1.41747e-09
-9.88692e-13
2.78847e-12
1.4176e-09
-3.08475e-13
-3.56414e-13
1.41798e-09
-2.49921e-15
-6.05083e-13
1.41799e-09
-1.71776e-14
8.54481e-15
1.4175e-09
2.58996e-13
-9.68528e-13
1.41738e-09
3.24579e-13
-4.23534e-15
1.41697e-09
6.15574e-13
-6.65795e-13
1.41879e-09
-2.86183e-12
6.13931e-13
1.41802e-09
4.9978e-13
1.15298e-13
1.41782e-09
1.63245e-13
3.52782e-14
1.41776e-09
1.84889e-13
-4.12734e-13
1.41862e-09
-3.35996e-13
-1.32968e-12
1.4175e-09
2.8494e-12
-1.34861e-12
1.4175e-09
-3.19281e-13
2.916e-13
1.41735e-09
2.68268e-13
-1.46004e-13
1.41842e-09
-9.69097e-13
-3.45971e-13
1.41809e-09
2.00226e-13
1.34142e-13
1.41751e-09
-4.45484e-13
7.75991e-13
1.26354e-12
-1.12747e-12
5.80478e-11
-7.10665e-09
1.09569e-08
3.4634e-09
6.50002e-09
-1.09023e-08
-4.205e-10
-2.95019e-10
-2.97808e-09
-8.8096e-10
-1.06154e-09
6.25204e-09
3.19878e-09
-2.22664e-08
-4.53186e-08
6.47632e-08
4.84577e-10
6.20237e-09
-5.81138e-09
1.93364e-09
-1.3226e-10
4.99072e-10
2.87393e-10
1.66605e-09
-1.06671e-09
2.008e-09
-6.55967e-09
3.95233e-09
1.3847e-09
1.3171e-09
-2.853e-10
-2.25859e-09
4.99999e-10
-2.38455e-10
-4.73676e-10
5.42159e-11
3.19452e-10
3.70578e-10
-5.78925e-10
-9.24022e-11
-1.87031e-11
-1.55442e-10
-2.67288e-12
3.6982e-11
-1.51198e-11
1.36252e-10
-3.44698e-11
2.05465e-10
-2.61358e-12
-8.82331e-12
-3.42545e-11
-6.38534e-11
-6.41751e-11
1.41696e-09
-1.52346e-12
-2.47177e-11
-2.54245e-10
-2.59019e-10
-4.22547e-10
-4.34733e-10
1.42018e-09
-1.93213e-12
-1.95401e-12
1.4207e-09
-1.57654e-12
5.07942e-13
1.42053e-09
-1.22894e-12
-1.1505e-13
1.41926e-09
3.01306e-13
-7.42544e-13
1.41881e-09
-7.62766e-13
5.2592e-15
1.41847e-09
-4.70028e-13
-5.93357e-16
1.41794e-09
6.70935e-13
7.06389e-13
1.41805e-09
-5.97962e-13
4.7684e-14
1.41817e-09
-7.25761e-13
5.09353e-14
1.41821e-09
-6.05138e-13
1.69294e-14
1.41789e-09
1.93713e-13
-1.00006e-14
1.41755e-09
-1.15203e-14
4.30436e-13
1.41717e-09
4.55682e-13
5.56905e-14
1.41838e-09
-2.19536e-12
9.64968e-13
1.41851e-09
8.35966e-13
-1.29087e-12
1.41828e-09
1.64414e-14
4.62299e-13
1.41781e-09
3.45353e-14
-8.00615e-13
1.41799e-09
-7.11241e-13
8.64679e-13
1.41832e-09
-1.56279e-13
-6.63807e-14
1.41675e-09
-1.84739e-12
4.08485e-12
1.41669e-09
3.16938e-13
-6.30009e-13
1.41737e-09
2.44369e-13
-2.07061e-12
1.41748e-09
5.56026e-13
-1.64702e-12
1.41839e-09
-3.24055e-12
2.02502e-12
1.41843e-09
-2.38067e-12
2.34191e-12
1.41812e-09
3.1694e-13
-2.50346e-14
1.41819e-09
2.67612e-14
1.53888e-13
1.41832e-09
2.02663e-13
-2.43643e-14
1.41844e-09
1.14182e-13
3.69362e-13
1.41702e-09
-1.16206e-12
-2.81876e-13
1.41732e-09
3.61059e-13
-1.74715e-13
1.4175e-09
-4.30138e-15
-9.43731e-15
1.41696e-09
1.0589e-12
-3.33653e-13
1.41719e-09
-6.99138e-13
1.32797e-13
1.41847e-09
2.87983e-13
1.27669e-12
1.41803e-09
-8.07257e-14
1.98278e-13
1.41807e-09
1.05267e-13
1.20013e-13
1.41777e-09
-1.69311e-12
1.0276e-12
1.41759e-09
4.0068e-13
-2.62013e-14
1.4179e-09
1.62781e-13
-9.20381e-13
-1.75444e-13
1.19627e-12
-9.5206e-09
-3.43827e-09
7.23823e-09
1.40007e-09
5.84397e-09
2.21307e-09
-2.16631e-08
1.22482e-08
-3.88828e-09
-1.56758e-09
2.09918e-09
2.90683e-10
1.03881e-09
5.49028e-10
-1.03549e-09
8.47727e-10
2.50004e-09
2.30775e-10
-5.2352e-10
1.62775e-09
-9.34769e-10
-1.42715e-09
-1.18169e-09
-2.91431e-10
-8.75083e-10
7.27318e-10
-5.71076e-11
-1.20434e-10
3.25307e-10
-2.79745e-10
-3.44102e-10
1.4493e-10
-4.13598e-10
8.92514e-10
-9.6866e-11
-6.49359e-12
-2.94892e-11
3.90395e-11
9.38093e-11
-3.78995e-11
2.03428e-10
7.63756e-12
-3.2058e-11
-7.30663e-11
-6.08737e-11
-9.78187e-13
-7.87268e-13
-2.07237e-12
-2.21272e-12
-1.11786e-12
1.41728e-09
-1.65033e-11
-2.7668e-11
-2.54374e-10
-2.58414e-10
-4.23706e-10
-4.38143e-10
1.42113e-09
-3.94085e-12
-1.88713e-12
1.42105e-09
-1.89754e-12
3.69944e-13
1.42055e-09
-8.76192e-13
1.54475e-13
1.42037e-09
-9.02702e-14
5.69155e-13
1.41953e-09
8.0145e-14
-1.47102e-14
1.41886e-09
1.73151e-13
1.23937e-14
1.4194e-09
5.547e-14
7.07922e-14
1.4188e-09
1.97471e-13
-1.94909e-13
1.41837e-09
-8.82526e-13
5.88326e-13
1.41726e-09
6.52396e-13
-1.50879e-13
1.41793e-09
-5.18139e-13
4.22673e-14
1.4176e-09
9.8902e-13
-6.79152e-13
1.41835e-09
-2.85179e-13
6.12474e-16
1.41755e-09
-5.73884e-13
-8.23934e-13
1.41718e-09
-9.32876e-14
1.28701e-12
1.41748e-09
-2.21365e-13
-8.06147e-14
1.4176e-09
-1.48059e-13
4.12536e-14
1.41726e-09
2.32861e-15
-3.90263e-13
1.4166e-09
1.01147e-13
3.91087e-13
1.41823e-09
1.29349e-12
-4.77826e-12
1.41867e-09
1.24384e-12
-1.37783e-12
1.41828e-09
6.02086e-13
3.70269e-14
1.41908e-09
8.44445e-13
-1.08781e-12
1.4177e-09
8.85442e-14
-1.94336e-12
1.41759e-09
1.82011e-13
-2.44205e-12
1.41774e-09
1.32254e-13
3.48826e-14
1.41785e-09
-1.42742e-13
5.22372e-14
1.41797e-09
1.39998e-13
-7.16472e-14
1.41792e-09
-4.00258e-14
1.93326e-13
1.41772e-09
-5.41673e-13
-4.33164e-13
1.41745e-09
-8.38528e-13
1.46708e-12
1.41632e-09
1.0615e-12
5.95193e-14
1.4174e-09
-9.98587e-14
7.61875e-14
1.4181e-09
-2.80258e-12
1.40442e-12
1.4184e-09
3.84124e-13
-4.01704e-13
1.41833e-09
-1.00724e-13
8.86687e-14
1.41831e-09
-3.04327e-14
1.52752e-13
1.41757e-09
-7.9043e-14
-8.76401e-13
1.41748e-09
5.70317e-13
-7.31641e-14
1.4173e-09
2.48024e-13
9.60389e-14
-1.465e-12
5.94922e-13
-5.01216e-10
-5.61381e-10
-9.89025e-10
9.64974e-09
2.90683e-11
6.36591e-09
-5.08963e-09
-1.35329e-09
-4.25843e-09
1.83327e-09
1.44999e-09
1.11665e-08
2.03094e-08
-1.33813e-08
-1.38225e-08
-1.92312e-09
7.1424e-10
-1.52243e-09
-5.55477e-11
1.02154e-10
7.41532e-10
2.41981e-10
9.81763e-10
2.24219e-09
5.72781e-10
-3.82349e-09
-9.80844e-09
-4.19252e-09
1.96577e-08
-7.83659e-10
8.52418e-09
-3.94862e-10
-2.27202e-10
2.09473e-10
7.29509e-09
-1.01761e-08
4.81721e-09
9.89537e-09
-2.38214e-08
3.16023e-10
1.88404e-09
3.29407e-09
-8.32563e-10
-5.53386e-10
3.42222e-09
-7.40233e-10
-4.15402e-10
-1.7132e-09
-1.23031e-10
-2.47289e-11
-7.48502e-11
1.32931e-10
-6.2025e-11
-4.70039e-11
-2.56975e-11
-4.20699e-11
-3.31036e-11
-6.30348e-11
9.69527e-11
7.60694e-11
9.88932e-11
9.06989e-11
-9.55998e-11
2.22181e-12
-7.57503e-12
7.23358e-11
2.86172e-11
1.4319e-09
-1.4386e-11
-2.91169e-11
-2.58743e-10
-2.65424e-10
-4.32178e-10
-4.48572e-10
1.4269e-09
2.95336e-12
-1.91125e-12
1.42363e-09
1.0103e-12
3.50108e-13
1.42125e-09
1.63649e-12
-1.42591e-13
1.42017e-09
9.25991e-13
2.93812e-14
1.41943e-09
8.19601e-13
-2.97069e-14
1.4188e-09
8.18945e-13
-1.0248e-14
1.41823e-09
6.57881e-13
-1.32243e-14
1.41811e-09
2.57315e-13
6.77221e-14
1.4177e-09
1.64386e-13
-6.44429e-13
1.41825e-09
1.33942e-14
9.50362e-14
1.41765e-09
9.25484e-14
-1.48591e-14
1.41845e-09
-9.28125e-14
2.88668e-13
1.41831e-09
-8.69941e-14
-6.38868e-14
1.41794e-09
-2.82014e-13
7.7544e-14
1.41796e-09
-8.9344e-14
-4.17195e-14
1.41773e-09
-1.02674e-13
9.53421e-14
1.41753e-09
-2.16358e-13
2.42951e-13
1.41769e-09
-1.50049e-14
-1.59717e-13
1.41805e-09
8.00719e-13
-1.07073e-12
1.41853e-09
1.09931e-12
-2.91495e-13
1.4176e-09
2.45537e-13
1.92875e-12
1.4178e-09
5.49505e-13
-1.4976e-13
1.41744e-09
-1.00591e-12
2.20988e-12
1.41763e-09
-7.17762e-14
-1.7549e-14
1.41781e-09
5.80286e-14
-5.26238e-14
1.41794e-09
5.30887e-14
-5.10907e-14
1.41775e-09
7.98634e-14
-4.78116e-14
1.41782e-09
-1.09507e-14
6.9834e-14
1.41779e-09
-1.7579e-13
1.5922e-13
1.41713e-09
-3.03691e-13
4.05215e-13
1.41713e-09
1.10025e-12
-1.93714e-12
1.41806e-09
1.55001e-13
-2.94351e-14
1.41848e-09
8.60806e-13
-1.38113e-12
1.41752e-09
3.62487e-13
-2.20744e-12
1.41799e-09
7.7736e-13
-8.67896e-13
1.41819e-09
3.1711e-13
-6.1244e-13
1.4183e-09
6.19467e-14
-2.08828e-13
1.41816e-09
1.44413e-12
-1.38463e-12
1.41699e-09
1.72259e-12
1.50361e-14
1.41723e-09
3.76936e-14
-2.43854e-14
-1.90256e-12
5.6143e-13
1.18185e-09
6.07627e-10
-1.93539e-09
-1.29749e-09
9.85357e-10
-1.39757e-09
1.06635e-09
8.62464e-10
7.54666e-10
-1.72647e-09
-6.59043e-09
9.52799e-09
5.66617e-12
2.14742e-09
-4.34395e-10
-2.80903e-10
7.44683e-10
-2.70178e-10
-4.62318e-10
3.95947e-09
1.20606e-09
-6.3464e-09
-2.03877e-09
3.21964e-09
-3.36583e-09
-5.71133e-10
7.51691e-09
-5.6028e-09
1.07872e-09
7.25178e-11
2.18459e-10
6.53145e-10
4.20631e-10
3.75869e-10
-9.43664e-11
-2.01256e-10
-5.00878e-10
-3.79244e-11
1.88735e-10
-2.94467e-10
-1.65098e-10
-2.06076e-11
3.07526e-11
-1.37983e-11
7.75989e-11
7.87345e-11
6.73199e-11
8.87544e-11
-1.46918e-10
1.3382e-11
-3.35978e-12
6.01965e-11
7.66991e-11
1.436e-09
1.65146e-11
-3.66862e-11
-2.60711e-10
-2.61992e-10
-4.50081e-10
-4.5744e-10
1.42839e-09
1.0613e-11
-6.42613e-14
1.4234e-09
5.98704e-12
-1.30685e-14
1.42048e-09
4.50349e-12
1.38663e-14
1.42029e-09
-1.55885e-14
1.11326e-12
1.41982e-09
1.30711e-12
-1.19565e-14
1.41846e-09
2.86397e-12
-6.63754e-13
1.41777e-09
2.1808e-12
-8.25857e-13
1.41787e-09
1.18617e-13
3.16701e-14
1.41766e-09
3.5482e-13
1.07541e-14
1.41724e-09
2.48296e-13
1.82954e-13
1.4178e-09
-3.06877e-12
2.6025e-12
1.41802e-09
-3.65256e-13
5.03504e-14
1.41831e-09
-7.41612e-13
3.71255e-13
1.41807e-09
1.84191e-13
-2.35645e-13
1.418e-09
-1.07629e-13
8.58669e-14
1.41802e-09
-2.11713e-13
7.11327e-14
1.41826e-09
-2.33033e-13
-2.46724e-13
1.41825e-09
-4.47908e-16
-1.5349e-14
1.41807e-09
1.92679e-13
7.72841e-13
1.41746e-09
4.22192e-13
1.28211e-12
1.41762e-09
3.8388e-13
-3.00891e-13
1.41823e-09
1.47242e-13
-2.14025e-13
1.41745e-09
-6.10874e-13
3.88553e-13
1.41754e-09
-9.58257e-15
-1.43552e-13
1.41771e-09
-8.15445e-14
-2.9994e-14
1.41774e-09
-1.07021e-13
1.28224e-13
1.41777e-09
-3.32976e-15
4.86802e-14
1.41733e-09
1.17943e-12
-7.62072e-13
1.41722e-09
7.61603e-14
-1.56428e-13
1.41755e-09
-6.69091e-13
2.35429e-14
1.41821e-09
-1.84075e-13
6.20147e-13
1.41843e-09
1.51156e-14
-7.93683e-14
1.41753e-09
3.72097e-14
1.71914e-12
1.4179e-09
-1.72781e-12
1.71724e-12
1.41737e-09
2.39391e-13
1.06788e-12
1.41805e-09
-6.66678e-13
3.05036e-13
1.41843e-09
-3.70849e-13
5.10094e-14
1.41843e-09
-1.32111e-12
2.76276e-12
1.41698e-09
3.32728e-12
-1.59044e-13
1.41731e-09
-8.7261e-13
5.88748e-13
-2.08836e-13
-8.46505e-13
-1.07344e-08
1.02309e-09
1.05098e-08
4.74041e-09
6.80578e-09
2.42695e-10
-1.51727e-08
3.38386e-09
9.2601e-10
1.29491e-09
5.78354e-10
-2.97225e-09
1.72974e-10
-7.31934e-10
1.36236e-09
-7.58823e-10
-1.86702e-10
3.45162e-10
-4.54742e-10
3.45775e-10
-4.28846e-12
-2.70623e-10
4.39692e-11
3.09845e-10
1.38838e-10
-6.72794e-11
-2.13871e-10
-2.38603e-10
3.80915e-10
1.63034e-10
-4.8048e-10
-4.67359e-11
-3.27724e-10
6.91906e-10
-1.11095e-10
1.45624e-10
-1.61986e-10
-1.0923e-11
-8.12875e-11
-1.86298e-10
-1.39542e-10
1.44355e-10
1.28254e-10
1.46556e-10
1.26342e-10
-1.03255e-10
-1.211e-12
1.96449e-12
-1.40181e-11
1.1652e-10
1.42416e-09
3.8121e-11
-3.55772e-11
-2.59328e-10
-2.57675e-10
-4.51729e-10
-4.41463e-10
1.42214e-09
1.29979e-11
-3.90097e-13
1.41932e-09
8.75314e-12
3.85079e-14
1.41913e-09
4.88707e-12
-2.07067e-13
1.41754e-09
2.68929e-12
-1.11794e-12
1.41709e-09
1.74361e-12
6.68336e-15
1.41782e-09
1.43114e-12
6.74398e-13
1.41822e-09
9.63786e-13
8.10283e-13
1.4177e-09
5.8542e-13
5.94792e-14
1.41803e-09
-5.02092e-14
6.6808e-14
1.41798e-09
4.29165e-13
-1.42068e-13
1.41649e-09
9.79122e-13
-2.56297e-12
1.41942e-09
-6.98888e-12
3.69333e-12
1.41824e-09
7.45721e-13
-3.11028e-13
1.418e-09
3.39133e-13
8.60998e-14
1.41779e-09
4.66741e-13
-3.62067e-13
1.41773e-09
-4.61815e-14
-1.10694e-13
1.41834e-09
7.90505e-13
-1.64294e-12
1.41833e-09
1.67648e-14
-2.50454e-14
1.41832e-09
2.4029e-13
-5.6263e-14
1.41802e-09
9.4466e-13
-2.32522e-13
1.41711e-09
3.17315e-12
-1.87638e-12
1.4169e-09
-8.61298e-13
1.21632e-12
1.41796e-09
-3.0759e-13
-1.37005e-12
1.41793e-09
1.05085e-13
-7.81731e-14
1.41769e-09
1.60992e-13
-7.98909e-15
1.41745e-09
1.02695e-12
-8.96668e-13
1.41741e-09
5.43292e-14
-1.81145e-14
1.418e-09
-2.18461e-13
7.99815e-13
1.41756e-09
4.24853e-13
7.63518e-14
1.41739e-09
-7.16666e-13
2.11252e-13
1.41777e-09
-5.56815e-13
-1.27859e-14
1.41821e-09
-4.57467e-13
2.7225e-14
1.41836e-09
-4.64753e-13
3.49016e-13
1.41763e-09
-3.60794e-14
-9.63946e-13
1.41754e-09
3.28672e-13
4.64025e-15
1.41714e-09
-3.62795e-13
9.52946e-14
1.41697e-09
-9.81182e-14
-1.07439e-13
1.41692e-09
1.35766e-12
-2.62808e-12
1.41894e-09
1.16677e-12
1.45351e-13
1.41865e-09
-4.29531e-13
-1.54249e-13
-7.5556e-13
1.72811e-12
-8.15617e-09
-8.47037e-10
1.47192e-08
-7.81323e-09
-6.35596e-09
-8.61669e-09
2.47253e-08
1.12425e-08
-7.66124e-09
-2.02716e-09
-2.2428e-09
-2.6784e-09
-2.88927e-09
-3.89864e-09
-4.86871e-09
2.44028e-10
3.67213e-10
5.67466e-09
5.342e-09
-1.23356e-08
-4.69001e-11
1.3672e-09
1.66843e-10
-3.53789e-11
-1.32809e-10
4.4128e-10
-5.31803e-10
2.93206e-10
1.19534e-09
-1.39802e-09
5.49983e-10
1.28538e-10
8.51636e-10
-1.06316e-09
-4.66999e-10
-3.65072e-10
1.01678e-10
4.45423e-11
-2.54479e-10
4.7333e-10
-1.2578e-10
9.03216e-11
1.96753e-10
-8.72657e-10
-1.53245e-10
4.98362e-10
-5.935e-11
9.91598e-11
1.25536e-10
9.3564e-11
1.07335e-10
-1.37019e-10
-1.4381e-11
1.48017e-11
7.27161e-11
6.38826e-11
1.40343e-09
2.14542e-11
-2.72897e-11
-2.58408e-10
-2.51764e-10
-4.32807e-10
-4.16502e-10
1.40962e-09
8.49208e-12
-1.69394e-12
1.41275e-09
5.26341e-12
3.42199e-13
1.41482e-09
2.87115e-12
-5.45136e-14
1.41602e-09
1.48283e-12
7.55176e-15
1.4168e-09
8.92249e-13
6.10247e-14
1.41672e-09
1.53151e-12
-4.67194e-14
1.41749e-09
1.27993e-13
4.13785e-14
1.41792e-09
1.55556e-13
-2.96869e-15
1.41748e-09
4.25805e-13
-5.04166e-14
1.41843e-09
-6.2062e-13
7.52746e-14
1.41927e-09
3.08085e-13
-1.81241e-13
1.41651e-09
-6.28639e-13
-3.60674e-12
1.41747e-09
-1.04265e-13
-1.05762e-13
1.41775e-09
1.42477e-13
-7.95922e-14
1.418e-09
-9.35282e-14
3.19068e-13
1.41799e-09
5.98558e-14
-8.82328e-14
1.41753e-09
-3.86146e-13
1.62705e-12
1.41794e-09
-4.95156e-13
8.86555e-14
1.41881e-09
-6.67508e-13
2.82982e-14
1.4164e-09
8.06823e-12
-4.72686e-12
1.41716e-09
1.24308e-12
1.16635e-12
1.41788e-09
-6.69398e-13
-9.20995e-13
1.41784e-09
-1.83859e-13
-7.73562e-14
1.41787e-09
-3.13477e-16
6.71502e-14
1.41773e-09
9.20607e-14
2.0588e-13
1.41804e-09
-5.44127e-14
7.73063e-13
1.41808e-09
6.84643e-14
-5.7414e-14
1.41827e-09
-3.38517e-13
-8.06404e-14
1.4171e-09
2.34931e-12
-7.61896e-13
1.41701e-09
-7.95313e-14
-5.5761e-13
1.41841e-09
9.75748e-13
-2.93504e-12
1.41796e-09
-2.66713e-14
2.01089e-14
1.41796e-09
-1.08851e-13
-3.61043e-13
1.41754e-09
-2.61202e-13
6.43208e-13
1.41731e-09
3.47709e-14
5.20575e-13
1.41726e-09
-2.41392e-13
-7.54839e-14
1.4171e-09
6.81624e-14
-3.44412e-15
1.41753e-09
-7.85613e-13
1.70552e-12
1.41797e-09
6.85496e-13
4.81752e-14
1.4182e-09
-9.95372e-14
-5.61695e-13
-2.38453e-13
-1.19881e-12
8.22127e-09
3.78805e-09
-1.14673e-08
9.55306e-10
2.98575e-09
9.46581e-09
5.5064e-10
-3.28784e-09
5.52472e-09
-4.33519e-09
-3.77303e-09
-4.20382e-09
-3.74816e-09
1.28715e-08
9.48265e-09
-1.4297e-08
1.58227e-10
2.06117e-09
-3.74458e-09
2.48065e-09
-2.17979e-10
-9.11838e-10
-1.65841e-10
1.43638e-09
-1.4072e-10
-2.09182e-10
7.24241e-11
-4.18576e-10
2.86212e-10
2.69122e-10
6.7238e-11
8.17157e-10
-5.93414e-11
-1.621e-10
-6.62953e-10
-5.06404e-11
-2.2488e-11
-2.16022e-12
-6.54268e-13
7.59425e-11
-5.7838e-11
-3.34796e-12
1.00575e-12
3.32854e-11
2.68947e-11
1.38742e-09
-7.84544e-12
-2.666e-11
-2.51579e-10
-2.49375e-10
-4.2219e-10
-4.08317e-10
1.40132e-09
-3.55693e-12
-1.86589e-12
1.40831e-09
-2.0571e-12
3.21632e-13
1.41225e-09
-1.01541e-12
-8.34228e-14
1.41427e-09
-5.62802e-13
1.13903e-14
1.41556e-09
-3.56484e-13
-3.61235e-14
1.41732e-09
-3.23921e-13
9.41089e-14
1.41771e-09
-3.04244e-13
1.94759e-14
1.41744e-09
4.56591e-13
-5.72379e-14
1.41814e-09
-5.24859e-13
2.19425e-13
1.41774e-09
-1.65468e-12
1.40787e-12
1.41782e-09
1.16969e-12
-9.5498e-13
1.41769e-09
-4.59831e-13
-4.847e-14
1.41778e-09
1.54092e-13
-3.48982e-13
1.41779e-09
-5.44728e-13
6.80419e-13
1.41791e-09
-1.9239e-13
-1.42516e-15
1.4177e-09
9.35546e-14
1.86691e-13
1.4175e-09
-5.92618e-13
4.09705e-13
1.41722e-09
-1.46887e-15
-2.18056e-13
1.41564e-09
9.71381e-13
-7.66565e-14
1.4183e-09
4.01323e-13
4.99208e-12
1.41844e-09
1.023e-12
7.83325e-14
1.41883e-09
-2.92847e-12
1.86154e-12
1.41837e-09
2.78492e-13
-8.11443e-15
1.41775e-09
1.8839e-13
4.2606e-13
1.41776e-09
1.43093e-13
-6.44349e-14
1.41781e-09
6.05832e-15
-1.09235e-13
1.41758e-09
6.43273e-13
-3.57575e-13
1.41718e-09
9.88208e-15
4.74976e-14
1.41862e-09
1.81064e-13
7.26911e-13
1.41872e-09
-1.52129e-13
-3.0386e-14
1.41746e-09
-5.46053e-13
2.76921e-12
1.4176e-09
1.45091e-13
-3.13755e-13
1.41755e-09
5.16338e-13
-5.7525e-13
1.41727e-09
6.96537e-13
-6.82962e-13
1.41776e-09
-7.02032e-14
-3.84996e-13
1.41746e-09
9.89558e-14
-4.2668e-14
1.41699e-09
5.03597e-13
3.3609e-14
1.41747e-09
-1.05032e-12
-2.21085e-13
1.41742e-09
4.90027e-13
2.44307e-13
1.41861e-09
-2.87318e-12
1.58588e-12
-3.78309e-13
-5.20512e-13
1.18824e-08
2.61246e-09
-9.34335e-09
4.03721e-09
-1.41589e-09
1.49334e-08
1.33102e-10
-2.81568e-09
-7.43664e-12
7.7077e-10
-2.64998e-09
4.19675e-09
1.96447e-09
-1.30638e-09
-3.97422e-10
7.70669e-10
1.58565e-09
2.79325e-09
1.27264e-09
1.09967e-09
-4.05404e-09
-2.00416e-09
2.86982e-10
6.15025e-10
-1.912e-09
5.208e-10
-9.67491e-11
6.52146e-10
7.05499e-10
-1.64726e-09
-3.94769e-10
4.05287e-11
4.64402e-10
1.5371e-09
1.93553e-10
-5.68494e-10
2.86208e-10
-2.36681e-10
3.25415e-10
-7.98673e-11
3.84804e-11
-3.94951e-11
1.51932e-11
6.56888e-11
-3.58577e-11
3.96515e-13
1.8743e-10
-2.03181e-13
1.24135e-11
-3.42484e-11
-6.71186e-11
-6.28118e-11
1.39239e-09
-4.16813e-11
-2.43857e-11
-2.54172e-10
-2.49501e-10
-4.2024e-10
-4.10265e-10
1.40392e-09
-1.30936e-11
-2.01372e-12
1.40989e-09
-8.57227e-12
5.55112e-13
1.41318e-09
-4.28491e-12
-1.45772e-14
1.41497e-09
-2.40378e-12
4.08187e-14
1.41623e-09
-1.70201e-12
7.73646e-14
1.41667e-09
-7.00398e-13
-8.89808e-14
1.41719e-09
-1.44604e-12
5.88413e-13
1.4178e-09
-2.69768e-13
8.15313e-14
1.41772e-09
-5.82152e-14
-4.0159e-13
1.41794e-09
-3.93325e-13
-1.49576e-12
1.4182e-09
1.09481e-13
7.78274e-13
1.4179e-09
-2.3426e-13
5.5485e-14
1.41733e-09
7.71669e-13
-5.41551e-14
1.41768e-09
-2.36791e-13
-6.55725e-13
1.41744e-09
9.1138e-14
-2.63564e-14
1.41795e-09
1.89694e-13
-5.89161e-13
1.41818e-09
-4.39271e-13
-3.80195e-13
1.41737e-09
1.4495e-12
-6.45821e-13
1.41821e-09
5.46528e-14
6.30789e-14
1.41819e-09
3.7895e-13
3.03389e-14
1.41829e-09
1.99176e-13
7.16387e-13
1.41745e-09
-1.06052e-13
-1.98308e-12
1.41757e-09
2.17794e-13
-6.64463e-14
1.41821e-09
1.17218e-12
-1.6241e-12
1.41747e-09
8.62022e-14
7.87123e-13
1.41744e-09
1.08245e-14
1.84724e-14
1.41765e-09
8.21116e-14
3.53534e-13
1.41765e-09
-7.66036e-14
8.07642e-14
1.41832e-09
-6.39954e-13
1.38035e-13
1.41795e-09
9.5269e-13
-7.3908e-13
1.41786e-09
-3.62949e-13
-9.82077e-14
1.41784e-09
-3.43881e-13
5.05669e-13
1.4173e-09
2.0246e-12
-9.70116e-13
1.41781e-09
3.18339e-14
1.55081e-13
1.41777e-09
-6.05638e-13
5.69865e-13
1.41777e-09
8.36815e-14
1.11176e-14
1.41832e-09
-2.75912e-13
2.2981e-13
1.41704e-09
4.66609e-13
-2.38109e-13
1.4173e-09
3.67732e-13
-1.33954e-13
1.41742e-09
1.11649e-12
-4.11617e-12
-1.88337e-12
-2.37682e-14
-5.10464e-10
-1.12507e-09
3.40414e-09
-1.94132e-09
4.00696e-09
-2.66258e-09
-3.17355e-09
3.91229e-09
-4.54486e-09
6.79221e-10
1.92063e-09
-1.52904e-10
-1.21841e-10
-2.69799e-10
-1.59794e-10
2.73124e-09
2.89188e-09
8.98432e-10
-8.28161e-09
1.76006e-09
-6.05987e-09
-3.38847e-09
7.0294e-10
2.0985e-08
-1.22396e-08
-3.96525e-11
-1.14627e-10
1.66956e-10
-2.63949e-11
1.37194e-11
-9.90496e-11
2.24995e-11
-2.05364e-12
-3.97089e-11
1.18313e-10
1.44615e-09
-3.78286e-11
-2.58309e-10
-2.4972e-10
-4.56833e-10
-4.36243e-10
3.65968e-12
1.32973e-13
8.25961e-12
2.63276e-12
1.42151e-09
1.28504e-12
1.41942e-09
-6.57998e-13
1.41789e-09
1.00056e-13
1.41712e-09
1.30597e-13
1.41639e-09
4.3933e-14
1.41792e-09
3.98777e-13
1.41825e-09
-4.60346e-14
1.4175e-09
-7.96701e-13
1.4173e-09
-1.22768e-14
1.41809e-09
4.15464e-13
1.41815e-09
7.91406e-14
1.41809e-09
3.47063e-13
1.41739e-09
1.08465e-12
1.4177e-09
4.91358e-13
1.41764e-09
-1.93532e-13
1.41784e-09
2.77551e-14
1.41744e-09
1.87894e-13
1.41785e-09
1.33245e-12
1.41808e-09
1.00995e-12
1.41787e-09
-3.57331e-14
1.41829e-09
1.44548e-12
1.41824e-09
-2.39692e-13
1.41801e-09
-1.78129e-12
1.41722e-09
-1.12311e-12
1.41729e-09
1.62013e-12
1.41763e-09
-2.64923e-14
1.41754e-09
8.51842e-14
1.41801e-09
8.04961e-13
1.41777e-09
-5.48863e-14
1.41762e-09
-5.13631e-14
1.41823e-09
7.59368e-13
1.41787e-09
1.33564e-13
1.41776e-09
-2.4176e-13
1.41817e-09
1.90378e-12
1.41791e-09
1.09569e-12
1.41742e-09
-5.03413e-13
1.41769e-09
-1.69302e-13
1.4177e-09
-2.67814e-13
1.41815e-09
2.67327e-13
1.41875e-09
-2.28643e-13
1.41741e-09
2.70249e-12
7.90417e-14
-4.10607e-09
-6.09521e-09
1.28095e-08
-1.43142e-09
-4.86664e-09
4.69842e-10
1.02783e-08
-2.19134e-09
4.34186e-09
-1.51865e-08
-9.39096e-09
-3.6872e-10
-9.12354e-10
1.13081e-08
-4.76453e-10
1.06125e-10
4.24451e-10
1.9105e-09
3.47616e-09
-7.02773e-09
3.76638e-10
-1.97002e-10
-5.45951e-11
4.56768e-09
-4.3832e-10
-1.06949e-09
-7.09023e-10
-4.96991e-10
7.91722e-11
-5.10644e-10
3.37129e-10
-4.06934e-10
1.84579e-10
-7.37024e-11
-1.4806e-10
-2.55165e-11
7.99212e-11
1.57602e-10
2.47506e-09
-9.3232e-12
3.6791e-11
-6.44867e-10
-6.31273e-10
-6.44839e-10
-6.31347e-10
-1.49608e-11
-9.32015e-12
-1.49512e-11
2.40771e-09
2.62806e-11
7.86333e-13
2.38772e-09
-4.15196e-12
5.00821e-13
2.37523e-09
-2.75663e-12
8.25522e-14
2.37068e-09
-3.28959e-12
-2.75431e-13
2.36951e-09
-2.56359e-12
-6.80116e-13
2.36604e-09
-2.28205e-12
5.59657e-13
2.3652e-09
-1.4799e-12
1.72461e-13
2.36459e-09
-1.43792e-12
7.30561e-13
2.3649e-09
-7.51088e-13
-7.20977e-15
2.36401e-09
-8.27858e-13
-1.01979e-13
2.36394e-09
-8.9944e-13
3.12741e-14
2.36407e-09
-2.1014e-13
-4.77925e-13
2.36469e-09
1.39239e-13
1.01364e-12
2.36437e-09
2.29902e-13
-5.06358e-13
2.36429e-09
-5.21034e-13
3.07909e-13
2.36453e-09
-2.90587e-13
-5.95188e-14
2.3648e-09
-1.01414e-12
9.22275e-14
2.3642e-09
5.78705e-13
7.9019e-13
2.36474e-09
-6.05112e-13
-8.74969e-14
2.36497e-09
1.40916e-13
-3.61554e-14
2.36401e-09
5.36021e-13
-5.58036e-13
2.36444e-09
-1.3756e-14
-7.14132e-15
2.36326e-09
6.33445e-12
-1.82191e-12
2.36355e-09
4.35341e-12
-2.86586e-12
2.36407e-09
-4.97983e-13
-1.2704e-12
2.36486e-09
1.58849e-13
-5.62234e-13
2.36473e-09
1.12729e-13
5.57614e-14
2.36387e-09
7.25604e-14
3.70739e-13
2.36348e-09
6.75353e-13
2.18846e-14
2.36297e-09
-1.45431e-12
7.86172e-13
2.36558e-09
-7.54602e-13
-1.7794e-12
2.36471e-09
8.73645e-13
-5.73182e-14
2.36429e-09
3.96135e-13
4.93796e-14
2.36422e-09
2.25825e-13
-2.3782e-13
2.36561e-09
-5.29878e-13
-3.41053e-12
2.36376e-09
3.47446e-12
-2.56999e-12
2.36395e-09
-1.08689e-13
-3.2182e-13
2.3635e-09
1.81295e-13
1.03806e-13
2.36511e-09
-1.4503e-12
-5.6682e-13
2.36466e-09
2.05784e-13
1.64634e-13
2.36354e-09
7.32514e-13
8.84635e-13
-5.76057e-13
-4.06219e-13
-7.04025e-10
-1.96931e-08
2.5605e-08
-8.00426e-10
1.40155e-09
1.55246e-09
-4.52465e-09
4.99194e-10
3.01661e-09
-1.0598e-08
9.5593e-10
8.21462e-10
-2.01556e-09
2.20096e-09
-3.93256e-10
1.3657e-09
7.35066e-10
1.95038e-09
-5.62067e-09
3.74189e-10
1.61592e-09
3.05861e-10
5.96176e-09
-6.68809e-09
-2.07176e-10
-7.55009e-10
-3.54838e-10
-2.52622e-10
1.68244e-09
6.98686e-10
5.44445e-09
-3.97944e-09
-4.46659e-09
6.74776e-10
2.62483e-11
3.65745e-10
-4.46313e-10
1.74039e-09
5.60052e-10
-8.09833e-11
-2.40073e-11
-8.28702e-10
-1.36675e-09
-1.73942e-10
1.96168e-11
1.62042e-11
3.58343e-11
-8.59444e-12
1.10881e-10
-1.52073e-10
6.19576e-10
-7.24988e-12
2.42387e-13
1.82001e-12
-1.53539e-10
-1.58244e-10
-1.59853e-10
2.37896e-09
8.12059e-13
2.46669e-11
-5.92656e-10
-6.08802e-10
-5.92655e-10
-6.08819e-10
2.37265e-09
-1.87648e-12
2.03128e-12
2.37271e-09
-1.80219e-12
-5.53444e-13
2.3707e-09
-1.4771e-12
4.28207e-14
2.36791e-09
1.28075e-13
-6.64113e-13
2.36667e-09
-1.05994e-12
-4.06547e-15
2.36586e-09
-6.80876e-13
-5.04687e-15
2.36476e-09
8.33226e-13
-4.71616e-13
2.36485e-09
-7.41164e-13
-6.20876e-14
2.365e-09
-8.57891e-13
-8.406e-14
2.3649e-09
-7.53021e-13
-4.3331e-14
2.36448e-09
2.52872e-13
-5.49593e-14
2.36396e-09
9.53509e-13
1.27206e-13
2.36336e-09
7.014e-13
1.81297e-13
2.36505e-09
-3.56564e-12
2.30867e-12
2.36558e-09
-3.39669e-12
1.25976e-12
2.36505e-09
2.91788e-13
-3.47061e-13
2.36421e-09
7.77457e-14
5.11187e-13
2.3645e-09
1.23248e-13
-1.90466e-13
2.36499e-09
-5.02096e-13
7.24302e-14
2.36257e-09
4.76008e-12
2.26106e-12
2.36239e-09
-8.75615e-13
4.07236e-13
2.36379e-09
5.00842e-13
2.36452e-12
2.36399e-09
8.58023e-13
1.66474e-12
2.3653e-09
-2.44529e-12
2.66432e-12
2.36544e-09
1.42694e-12
9.32201e-13
2.36482e-09
6.73527e-13
2.39884e-14
2.36481e-09
7.67885e-14
1.40425e-13
2.36512e-09
3.54807e-13
-3.96626e-14
2.36526e-09
-5.64407e-13
-6.80232e-13
2.36308e-09
-7.94821e-13
1.92079e-12
2.36339e-09
5.89506e-13
-2.09369e-13
2.36354e-09
-9.02885e-16
2.35535e-13
2.36282e-09
6.91524e-13
-8.59488e-14
2.36338e-09
-9.28723e-13
-2.65515e-14
2.36521e-09
3.58163e-13
2.55042e-12
2.36457e-09
8.50125e-13
-1.20292e-13
2.36471e-09
2.11926e-13
-5.0299e-14
2.36419e-09
7.21488e-13
-6.2597e-13
2.36393e-09
6.18e-13
-1.7895e-13
2.36431e-09
1.94226e-13
-7.58874e-13
-2.70364e-13
1.97988e-13
-1.76248e-09
-6.49411e-09
2.77293e-09
-2.09452e-09
-1.31665e-09
-1.06191e-09
1.66835e-09
1.78941e-09
-7.47116e-10
-2.26123e-09
-1.50732e-09
-4.04006e-09
-1.76342e-09
5.56563e-10
8.16076e-10
-6.6533e-10
7.89414e-10
1.93346e-09
-3.96415e-08
7.84211e-09
5.7153e-08
-2.14731e-08
5.00351e-10
-2.07467e-10
5.13509e-09
-3.41055e-09
-1.09255e-09
-9.24846e-10
5.73325e-09
1.17747e-10
4.28197e-10
1.34422e-09
1.14457e-10
-7.73788e-09
3.45262e-10
-1.28501e-10
2.37974e-09
2.907e-10
4.75716e-10
-3.36291e-09
-9.32991e-11
3.23333e-11
1.82829e-11
-3.92558e-11
-4.20174e-11
1.23956e-10
-1.63076e-10
6.13721e-10
1.42737e-12
-1.78269e-11
-1.22969e-10
-1.69586e-10
-1.25709e-10
-1.04312e-12
-3.68679e-12
-3.77722e-12
-3.79472e-12
-3.67939e-12
2.37737e-09
-1.92399e-11
2.82177e-11
-5.93615e-10
-6.13001e-10
-5.93615e-10
-6.13037e-10
2.37346e-09
-1.68508e-12
1.78847e-12
2.37275e-09
-3.74055e-13
-3.8615e-13
2.37057e-09
9.52774e-13
-1.3359e-13
2.36954e-09
8.06419e-13
8.89653e-13
2.36773e-09
7.17868e-13
1.25655e-14
2.36642e-09
6.84788e-13
-4.85844e-14
2.36706e-09
3.28609e-13
-7.5857e-14
2.36602e-09
-9.60287e-14
1.98022e-13
2.3653e-09
2.90281e-13
1.70042e-13
2.36345e-09
7.4947e-13
1.89921e-13
2.36449e-09
-7.23441e-13
-2.02711e-14
2.36408e-09
6.13202e-13
6.51017e-14
2.36517e-09
-3.05312e-13
-7.63672e-14
2.36401e-09
-7.1902e-13
-2.53645e-12
2.36331e-09
-9.4736e-14
-1.35085e-12
2.36371e-09
-2.68563e-13
3.6933e-14
2.36393e-09
-1.42141e-13
5.62698e-15
2.36326e-09
3.81345e-13
-1.82313e-14
2.36229e-09
1.23768e-12
-4.01273e-13
2.36488e-09
-1.32443e-12
-1.29305e-12
2.36562e-09
-3.94537e-12
9.45243e-13
2.36515e-09
1.18409e-12
-1.64489e-13
2.36658e-09
-2.52106e-12
8.65893e-13
2.36444e-09
3.4493e-13
-2.57282e-12
2.36384e-09
3.42687e-13
-7.57738e-13
2.36419e-09
4.41227e-13
-9.13945e-14
2.36445e-09
-1.40354e-13
-1.43285e-14
2.3645e-09
1.58971e-13
3.84331e-14
2.36448e-09
-2.07753e-13
-1.64181e-13
2.3641e-09
-8.21377e-13
-4.38274e-14
2.36344e-09
1.99953e-12
7.10623e-13
2.36195e-09
1.23535e-12
3.05627e-13
2.3635e-09
-3.02208e-13
-4.76805e-13
2.36466e-09
1.53736e-12
-2.22416e-12
2.36518e-09
7.99235e-13
-1.37239e-12
2.36515e-09
1.03554e-12
-6.71783e-14
2.36511e-09
7.18655e-13
-3.17248e-13
2.36386e-09
1.08949e-13
9.8375e-13
2.36349e-09
8.6824e-13
4.5085e-14
2.36342e-09
4.28871e-13
-7.03249e-14
-2.15006e-12
1.18957e-12
5.4077e-09
-1.3534e-10
-1.02563e-08
4.22151e-09
-1.88516e-09
8.92995e-09
-6.87561e-10
-9.51926e-10
3.87806e-10
1.96968e-09
2.43181e-09
7.23178e-09
-2.91913e-09
-2.70045e-09
-9.30352e-10
-3.3246e-09
1.72427e-09
4.97136e-09
6.81469e-09
1.87609e-09
2.54473e-09
3.49256e-10
-6.46662e-09
3.90152e-08
1.33106e-09
-3.67736e-08
-8.70142e-09
8.51997e-10
4.28177e-09
-4.35908e-09
-1.13977e-09
9.0665e-09
6.17397e-10
7.0266e-10
-2.83224e-09
5.46932e-10
-3.26013e-10
1.29126e-09
-1.75152e-10
-1.79837e-10
3.84156e-11
-4.68412e-10
5.7102e-10
-1.55823e-10
-8.19268e-11
-2.42247e-11
3.39383e-11
-8.98023e-12
-3.8266e-12
1.21054e-10
1.07625e-10
1.21148e-10
1.0498e-10
-9.26835e-11
-7.50701e-11
7.61168e-13
-2.39129e-12
3.75978e-11
1.31786e-10
2.39573e-09
-1.41283e-11
2.86094e-11
-6.04012e-10
-6.25207e-10
-6.04016e-10
-6.2539e-10
2.3802e-09
1.01527e-11
1.73914e-12
2.37533e-09
5.05993e-12
-2.6452e-13
2.37066e-09
5.25544e-12