/*--------------------------------*- C++ -*----------------------------------*\
| =========                 |                                                 |
| \\      /  F ield         | OpenFOAM: The Open Source CFD Toolbox           |
|  \\    /   O peration     | Version:  5.0                                   |
|   \\  /    A nd           | Web:      www.OpenFOAM.org                      |
|    \\/     M anipulation  |                                                 |
\*---------------------------------------------------------------------------*/
FoamFile
{
    version     2.0;
    format      ascii;
    class       volScalarField;
    location    "4.2";
    object      rAU;
}
// * * * * * * * * * * * * * * * * * * * * * * * * * * * * * * * * * * * * * //

dimensions      [-1 3 1 0 0 0 0];

internalField   nonuniform List<scalar> 
7877
(
9.62554e-07
9.01003e-07
6.74065e-07
7.8105e-07
8.97469e-07
6.83974e-07
6.31822e-08
3.92283e-07
3.93661e-07
3.94695e-07
3.9573e-07
3.96762e-07
3.97794e-07
3.98826e-07
3.99856e-07
4.00886e-07
4.01915e-07
4.02943e-07
4.03971e-07
4.04998e-07
4.06024e-07
4.0705e-07
4.08075e-07
4.09099e-07
4.10122e-07
4.11145e-07
4.12166e-07
4.13187e-07
4.14208e-07
4.15227e-07
4.16246e-07
4.17264e-07
4.18281e-07
4.19297e-07
4.20313e-07
4.21328e-07
4.22342e-07
4.23355e-07
4.24367e-07
4.25379e-07
4.2639e-07
4.274e-07
4.28409e-07
4.29417e-07
4.30425e-07
4.31431e-07
4.32437e-07
4.33442e-07
4.34446e-07
4.36222e-07
9.61793e-07
9.49436e-07
8.6269e-07
8.77041e-07
8.76622e-07
6.79983e-07
1.46176e-07
1.29685e-07
3.93453e-07
3.94696e-07
3.9573e-07
3.96762e-07
3.97794e-07
3.98826e-07
3.99856e-07
4.00886e-07
4.01915e-07
4.02943e-07
4.03971e-07
4.04998e-07
4.06024e-07
4.0705e-07
4.08075e-07
4.09099e-07
4.10122e-07
4.11145e-07
4.12166e-07
4.13187e-07
4.14208e-07
4.15227e-07
4.16246e-07
4.17264e-07
4.18281e-07
4.19297e-07
4.20313e-07
4.21328e-07
4.22342e-07
4.23355e-07
4.24367e-07
4.25379e-07
4.2639e-07
4.274e-07
4.28409e-07
4.29417e-07
4.30425e-07
4.31431e-07
4.32437e-07
4.33442e-07
4.34446e-07
4.36222e-07
9.68347e-07
9.47444e-07
8.93215e-07
9.00878e-07
4.67585e-07
6.72172e-07
6.98573e-07
1.29663e-07
3.93453e-07
3.94696e-07
3.9573e-07
3.96762e-07
3.97794e-07
3.98826e-07
3.99856e-07
4.00886e-07
4.01915e-07
4.02943e-07
4.03971e-07
4.04998e-07
4.06024e-07
4.0705e-07
4.08075e-07
4.09099e-07
4.10122e-07
4.11145e-07
4.12166e-07
4.13187e-07
4.14208e-07
4.15227e-07
4.16246e-07
4.17264e-07
4.18281e-07
4.19297e-07
4.20313e-07
4.21328e-07
4.22342e-07
4.23355e-07
4.24367e-07
4.25379e-07
4.2639e-07
4.274e-07
4.28409e-07
4.29417e-07
4.30425e-07
4.31431e-07
4.32437e-07
4.33442e-07
4.34446e-07
4.36222e-07
9.66935e-07
9.66724e-07
9.57338e-07
8.77374e-07
8.11906e-07
6.96433e-07
9.03486e-07
3.57874e-08
3.93453e-07
3.94696e-07
3.9573e-07
3.96762e-07
3.97794e-07
3.98826e-07
3.99856e-07
4.00886e-07
4.01915e-07
4.02943e-07
4.03971e-07
4.04998e-07
4.06024e-07
4.0705e-07
4.08075e-07
4.09099e-07
4.10122e-07
4.11145e-07
4.12166e-07
4.13187e-07
4.14208e-07
4.15227e-07
4.16246e-07
4.17264e-07
4.18281e-07
4.19297e-07
4.20313e-07
4.21328e-07
4.22342e-07
4.23355e-07
4.24367e-07
4.25379e-07
4.2639e-07
4.274e-07
4.28409e-07
4.29417e-07
4.30425e-07
4.31431e-07
4.32437e-07
4.33442e-07
4.34446e-07
4.36222e-07
9.65707e-07
8.48328e-07
8.96974e-07
8.58357e-07
6.88222e-07
6.63572e-07
9.02777e-07
6.9676e-08
3.93453e-07
3.94696e-07
3.9573e-07
3.96762e-07
3.97794e-07
3.98826e-07
3.99856e-07
4.00886e-07
4.01915e-07
4.02943e-07
4.03971e-07
4.04998e-07
4.06024e-07
4.0705e-07
4.08075e-07
4.09099e-07
4.10122e-07
4.11145e-07
4.12166e-07
4.13187e-07
4.14208e-07
4.15227e-07
4.16246e-07
4.17264e-07
4.18281e-07
4.19297e-07
4.20313e-07
4.21328e-07
4.22342e-07
4.23355e-07
4.24367e-07
4.25379e-07
4.2639e-07
4.274e-07
4.28409e-07
4.29417e-07
4.30425e-07
4.31431e-07
4.32437e-07
4.33442e-07
4.34446e-07
4.36222e-07
8.84316e-07
5.6904e-07
4.72512e-07
7.59765e-07
6.6665e-07
5.47623e-07
9.02731e-07
9.60129e-08
3.93453e-07
3.94696e-07
3.9573e-07
3.96763e-07
3.97794e-07
3.98826e-07
3.99856e-07
4.00886e-07
4.01915e-07
4.02943e-07
4.03971e-07
4.04998e-07
4.06024e-07
4.0705e-07
4.08075e-07
4.09099e-07
4.10122e-07
4.11145e-07
4.12166e-07
4.13187e-07
4.14208e-07
4.15227e-07
4.16246e-07
4.17264e-07
4.18281e-07
4.19297e-07
4.20313e-07
4.21328e-07
4.22342e-07
4.23355e-07
4.24367e-07
4.25379e-07
4.2639e-07
4.274e-07
4.28409e-07
4.29417e-07
4.30425e-07
4.31431e-07
4.32437e-07
4.33442e-07
4.34446e-07
4.36222e-07
9.33964e-07
8.6247e-07
7.02185e-07
4.99994e-07
5.06991e-07
6.93015e-07
9.01884e-07
5.14974e-08
3.93454e-07
3.94697e-07
3.9573e-07
3.96763e-07
3.97794e-07
3.98826e-07
3.99856e-07
4.00886e-07
4.01915e-07
4.02943e-07
4.03971e-07
4.04998e-07
4.06024e-07
4.0705e-07
4.08075e-07
4.09099e-07
4.10122e-07
4.11145e-07
4.12166e-07
4.13187e-07
4.14208e-07
4.15227e-07
4.16246e-07
4.17264e-07
4.18281e-07
4.19297e-07
4.20313e-07
4.21328e-07
4.22342e-07
4.23355e-07
4.24367e-07
4.25379e-07
4.2639e-07
4.274e-07
4.28409e-07
4.29417e-07
4.30425e-07
4.31431e-07
4.32437e-07
4.33442e-07
4.34446e-07
4.36222e-07
9.60136e-07
9.57833e-07
8.76863e-07
2.22133e-07
6.88203e-07
6.67641e-07
6.98954e-07
3.53063e-08
3.93455e-07
3.94697e-07
3.95731e-07
3.96763e-07
3.97794e-07
3.98826e-07
3.99856e-07
4.00886e-07
4.01915e-07
4.02943e-07
4.03971e-07
4.04998e-07
4.06024e-07
4.0705e-07
4.08075e-07
4.09099e-07
4.10122e-07
4.11145e-07
4.12166e-07
4.13187e-07
4.14208e-07
4.15227e-07
4.16246e-07
4.17264e-07
4.18281e-07
4.19297e-07
4.20313e-07
4.21328e-07
4.22342e-07
4.23355e-07
4.24367e-07
4.25379e-07
4.2639e-07
4.274e-07
4.28409e-07
4.29417e-07
4.30425e-07
4.31431e-07
4.32437e-07
4.33442e-07
4.34446e-07
4.36222e-07
9.61655e-07
9.61843e-07
9.65996e-07
7.45064e-07
6.30945e-07
6.28301e-07
6.98601e-07
1.29503e-07
3.93454e-07
3.94697e-07
3.9573e-07
3.96763e-07
3.97794e-07
3.98826e-07
3.99856e-07
4.00886e-07
4.01915e-07
4.02943e-07
4.03971e-07
4.04998e-07
4.06024e-07
4.0705e-07
4.08075e-07
4.09099e-07
4.10122e-07
4.11145e-07
4.12166e-07
4.13187e-07
4.14208e-07
4.15227e-07
4.16246e-07
4.17264e-07
4.18281e-07
4.19297e-07
4.20313e-07
4.21328e-07
4.22342e-07
4.23355e-07
4.24367e-07
4.25379e-07
4.2639e-07
4.274e-07
4.28409e-07
4.29417e-07
4.30425e-07
4.31431e-07
4.32437e-07
4.33442e-07
4.34446e-07
4.36222e-07
9.63469e-07
8.8714e-07
8.30677e-07
8.80768e-07
8.83467e-07
6.92145e-07
1.59464e-07
3.92285e-07
3.93661e-07
3.94696e-07
3.9573e-07
3.96762e-07
3.97794e-07
3.98826e-07
3.99856e-07
4.00886e-07
4.01915e-07
4.02943e-07
4.03971e-07
4.04998e-07
4.06024e-07
4.0705e-07
4.08075e-07
4.09099e-07
4.10122e-07
4.11145e-07
4.12166e-07
4.13187e-07
4.14208e-07
4.15227e-07
4.16246e-07
4.17264e-07
4.18281e-07
4.19297e-07
4.20313e-07
4.21328e-07
4.22342e-07
4.23355e-07
4.24367e-07
4.25379e-07
4.2639e-07
4.274e-07
4.28409e-07
4.29417e-07
4.30425e-07
4.31431e-07
4.32437e-07
4.33442e-07
4.34446e-07
4.36222e-07
9.7011e-07
9.23174e-07
6.0332e-07
8.19967e-07
9.21426e-07
7.03107e-07
9.24849e-08
5.04664e-07
5.0638e-07
5.07523e-07
5.08662e-07
5.09801e-07
5.10937e-07
5.1207e-07
5.13203e-07
5.14334e-07
5.15462e-07
5.1659e-07
5.17716e-07
5.1884e-07
5.19962e-07
5.21084e-07
5.22202e-07
5.2332e-07
5.24437e-07
5.2555e-07
5.26663e-07
5.27775e-07
5.28883e-07
5.29992e-07
5.31098e-07
5.32202e-07
5.33305e-07
5.34407e-07
5.35505e-07
5.36604e-07
5.377e-07
5.38794e-07
5.39887e-07
5.40979e-07
5.42068e-07
5.43156e-07
5.44242e-07
5.45326e-07
5.4641e-07
5.47491e-07
5.4857e-07
5.49648e-07
5.50725e-07
5.53039e-07
9.57046e-07
9.11288e-07
8.78846e-07
9.27109e-07
8.94525e-07
6.64053e-07
2.04628e-07
1.84065e-07
5.06036e-07
5.07524e-07
5.08663e-07
5.09801e-07
5.10937e-07
5.1207e-07
5.13203e-07
5.14334e-07
5.15462e-07
5.1659e-07
5.17716e-07
5.1884e-07
5.19962e-07
5.21084e-07
5.22202e-07
5.2332e-07
5.24437e-07
5.2555e-07
5.26663e-07
5.27775e-07
5.28883e-07
5.29992e-07
5.31098e-07
5.32202e-07
5.33305e-07
5.34407e-07
5.35505e-07
5.36604e-07
5.377e-07
5.38794e-07
5.39887e-07
5.40979e-07
5.42068e-07
5.43156e-07
5.44243e-07
5.45326e-07
5.4641e-07
5.47491e-07
5.4857e-07
5.49648e-07
5.50725e-07
5.53039e-07
9.6927e-07
9.06798e-07
4.79759e-07
3.27577e-07
5.89072e-07
6.62058e-07
7.76335e-07
1.83834e-07
5.06035e-07
5.07524e-07
5.08663e-07
5.09801e-07
5.10937e-07
5.1207e-07
5.13203e-07
5.14334e-07
5.15462e-07
5.1659e-07
5.17716e-07
5.1884e-07
5.19962e-07
5.21084e-07
5.22202e-07
5.2332e-07
5.24437e-07
5.2555e-07
5.26663e-07
5.27775e-07
5.28883e-07
5.29991e-07
5.31098e-07
5.32202e-07
5.33305e-07
5.34407e-07
5.35505e-07
5.36604e-07
5.377e-07
5.38794e-07
5.39887e-07
5.40979e-07
5.42068e-07
5.43156e-07
5.44243e-07
5.45326e-07
5.4641e-07
5.47491e-07
5.4857e-07
5.49648e-07
5.50725e-07
5.53039e-07
9.59524e-07
9.69613e-07
7.31615e-07
6.23706e-07
4.2401e-07
5.67142e-07
9.32373e-07
5.31897e-08
5.06035e-07
5.07524e-07
5.08663e-07
5.09801e-07
5.10937e-07
5.1207e-07
5.13203e-07
5.14334e-07
5.15462e-07
5.1659e-07
5.17716e-07
5.1884e-07
5.19962e-07
5.21084e-07
5.22202e-07
5.2332e-07
5.24437e-07
5.2555e-07
5.26663e-07
5.27775e-07
5.28883e-07
5.29991e-07
5.31098e-07
5.32202e-07
5.33305e-07
5.34407e-07
5.35505e-07
5.36604e-07
5.377e-07
5.38794e-07
5.39887e-07
5.40979e-07
5.42068e-07
5.43156e-07
5.44242e-07
5.45326e-07
5.4641e-07
5.47491e-07
5.4857e-07
5.49648e-07
5.50725e-07
5.53039e-07
9.76539e-07
8.97431e-07
8.96333e-07
6.37748e-07
8.42783e-07
6.52876e-07
9.31441e-07
1.01819e-07
5.06035e-07
5.07525e-07
5.08663e-07
5.09801e-07
5.10937e-07
5.1207e-07
5.13203e-07
5.14334e-07
5.15462e-07
5.1659e-07
5.17716e-07
5.1884e-07
5.19962e-07
5.21084e-07
5.22202e-07
5.2332e-07
5.24437e-07
5.2555e-07
5.26663e-07
5.27775e-07
5.28883e-07
5.29992e-07
5.31098e-07
5.32202e-07
5.33305e-07
5.34407e-07
5.35505e-07
5.36604e-07
5.377e-07
5.38794e-07
5.39887e-07
5.40979e-07
5.42068e-07
5.43156e-07
5.44243e-07
5.45326e-07
5.4641e-07
5.47491e-07
5.4857e-07
5.49648e-07
5.50725e-07
5.53039e-07
8.78654e-07
9.13624e-07
7.00533e-07
8.59132e-07
6.79901e-07
6.75123e-07
9.31476e-07
1.39846e-07
5.06036e-07
5.07526e-07
5.08664e-07
5.09802e-07
5.10937e-07
5.12071e-07
5.13203e-07
5.14334e-07
5.15462e-07
5.1659e-07
5.17716e-07
5.1884e-07
5.19962e-07
5.21084e-07
5.22202e-07
5.2332e-07
5.24437e-07
5.2555e-07
5.26663e-07
5.27775e-07
5.28883e-07
5.29992e-07
5.31098e-07
5.32202e-07
5.33305e-07
5.34407e-07
5.35505e-07
5.36604e-07
5.377e-07
5.38794e-07
5.39887e-07
5.40979e-07
5.42068e-07
5.43156e-07
5.44243e-07
5.45326e-07
5.4641e-07
5.47491e-07
5.4857e-07
5.49648e-07
5.50725e-07
5.53039e-07
8.89633e-07
7.15043e-07
3.07071e-07
8.00778e-07
8.32423e-07
7.40128e-07
9.31176e-07
7.69226e-08
5.06039e-07
5.07527e-07
5.08665e-07
5.09802e-07
5.10938e-07
5.12071e-07
5.13203e-07
5.14334e-07
5.15462e-07
5.1659e-07
5.17716e-07
5.1884e-07
5.19962e-07
5.21084e-07
5.22202e-07
5.2332e-07
5.24437e-07
5.2555e-07
5.26663e-07
5.27775e-07
5.28883e-07
5.29992e-07
5.31098e-07
5.32202e-07
5.33305e-07
5.34407e-07
5.35505e-07
5.36604e-07
5.377e-07
5.38794e-07
5.39887e-07
5.40979e-07
5.42068e-07
5.43156e-07
5.44243e-07
5.45326e-07
5.4641e-07
5.47491e-07
5.4857e-07
5.49648e-07
5.50725e-07
5.53039e-07
9.21596e-07
8.70323e-07
8.72935e-07
8.39018e-07
7.75462e-07
7.16811e-07
7.75929e-07
5.20075e-08
5.06041e-07
5.07528e-07
5.08665e-07
5.09802e-07
5.10938e-07
5.12071e-07
5.13203e-07
5.14334e-07
5.15462e-07
5.1659e-07
5.17716e-07
5.1884e-07
5.19962e-07
5.21084e-07
5.22202e-07
5.2332e-07
5.24437e-07
5.2555e-07
5.26663e-07
5.27775e-07
5.28883e-07
5.29992e-07
5.31098e-07
5.32202e-07
5.33305e-07
5.34407e-07
5.35505e-07
5.36604e-07
5.377e-07
5.38794e-07
5.39887e-07
5.40979e-07
5.42068e-07
5.43156e-07
5.44243e-07
5.45326e-07
5.4641e-07
5.47491e-07
5.4857e-07
5.49648e-07
5.50725e-07
5.53039e-07
9.68269e-07
9.77384e-07
9.74765e-07
8.6167e-07
3.84751e-07
4.65074e-07
7.7303e-07
1.8395e-07
5.06039e-07
5.07527e-07
5.08665e-07
5.09802e-07
5.10938e-07
5.12071e-07
5.13203e-07
5.14334e-07
5.15462e-07
5.1659e-07
5.17716e-07
5.1884e-07
5.19962e-07
5.21084e-07
5.22202e-07
5.2332e-07
5.24437e-07
5.2555e-07
5.26663e-07
5.27775e-07
5.28883e-07
5.29992e-07
5.31098e-07
5.32202e-07
5.33305e-07
5.34407e-07
5.35506e-07
5.36604e-07
5.377e-07
5.38794e-07
5.39887e-07
5.40979e-07
5.42068e-07
5.43156e-07
5.44243e-07
5.45326e-07
5.4641e-07
5.47491e-07
5.4857e-07
5.49648e-07
5.50724e-07
5.53039e-07
9.71125e-07
9.47679e-07
8.67654e-07
2.5312e-07
2.7255e-07
7.44412e-07
2.2288e-07
5.04671e-07
5.06381e-07
5.07524e-07
5.08663e-07
5.09801e-07
5.10937e-07
5.1207e-07
5.13203e-07
5.14334e-07
5.15462e-07
5.1659e-07
5.17716e-07
5.1884e-07
5.19962e-07
5.21084e-07
5.22202e-07
5.2332e-07
5.24437e-07
5.2555e-07
5.26663e-07
5.27775e-07
5.28883e-07
5.29992e-07
5.31098e-07
5.32202e-07
5.33305e-07
5.34407e-07
5.35506e-07
5.36604e-07
5.377e-07
5.38794e-07
5.39887e-07
5.40979e-07
5.42068e-07
5.43156e-07
5.44243e-07
5.45326e-07
5.4641e-07
5.47491e-07
5.4857e-07
5.49648e-07
5.50724e-07
5.53039e-07
9.60867e-07
9.40739e-07
8.3401e-07
9.10716e-07
4.7004e-07
7.12012e-07
9.20702e-08
3.92283e-07
3.93661e-07
3.94695e-07
3.95729e-07
3.96762e-07
3.97794e-07
3.98826e-07
3.99856e-07
4.00886e-07
4.01915e-07
4.02943e-07
4.03971e-07
4.04998e-07
4.06024e-07
4.0705e-07
4.08075e-07
4.09099e-07
4.10122e-07
4.11145e-07
4.12166e-07
4.13187e-07
4.14208e-07
4.15227e-07
4.16246e-07
4.17264e-07
4.18281e-07
4.19297e-07
4.20313e-07
4.21328e-07
4.22342e-07
4.23355e-07
4.24367e-07
4.25379e-07
4.2639e-07
4.274e-07
4.28409e-07
4.29417e-07
4.30425e-07
4.31431e-07
4.32437e-07
4.33442e-07
4.34446e-07
4.36222e-07
9.66762e-07
9.27671e-07
9.20437e-07
8.96049e-07
8.77911e-07
6.92249e-07
2.04125e-07
1.8407e-07
3.93453e-07
3.94696e-07
3.9573e-07
3.96762e-07
3.97794e-07
3.98826e-07
3.99856e-07
4.00886e-07
4.01915e-07
4.02943e-07
4.03971e-07
4.04998e-07
4.06024e-07
4.0705e-07
4.08075e-07
4.09099e-07
4.10122e-07
4.11145e-07
4.12166e-07
4.13187e-07
4.14208e-07
4.15227e-07
4.16246e-07
4.17264e-07
4.18281e-07
4.19297e-07
4.20313e-07
4.21328e-07
4.22342e-07
4.23355e-07
4.24367e-07
4.25379e-07
4.2639e-07
4.274e-07
4.28409e-07
4.29417e-07
4.30425e-07
4.31431e-07
4.32437e-07
4.33442e-07
4.34446e-07
4.36222e-07
9.65042e-07
9.33448e-07
7.32928e-07
3.60039e-07
4.33494e-07
6.66583e-07
7.7657e-07
1.83838e-07
3.93452e-07
3.94696e-07
3.9573e-07
3.96762e-07
3.97794e-07
3.98826e-07
3.99856e-07
4.00886e-07
4.01915e-07
4.02943e-07
4.03971e-07
4.04998e-07
4.06024e-07
4.0705e-07
4.08075e-07
4.09099e-07
4.10122e-07
4.11145e-07
4.12166e-07
4.13187e-07
4.14208e-07
4.15227e-07
4.16246e-07
4.17264e-07
4.18281e-07
4.19297e-07
4.20313e-07
4.21328e-07
4.22342e-07
4.23355e-07
4.24367e-07
4.25379e-07
4.2639e-07
4.274e-07
4.28409e-07
4.29417e-07
4.30425e-07
4.31431e-07
4.32437e-07
4.33442e-07
4.34446e-07
4.36222e-07
9.65629e-07
9.66148e-07
8.79323e-07
8.77077e-07
9.2002e-07
5.22423e-07
9.32561e-07
5.31326e-08
3.93453e-07
3.94696e-07
3.9573e-07
3.96762e-07
3.97794e-07
3.98826e-07
3.99856e-07
4.00886e-07
4.01915e-07
4.02943e-07
4.03971e-07
4.04998e-07
4.06024e-07
4.0705e-07
4.08075e-07
4.09099e-07
4.10122e-07
4.11145e-07
4.12166e-07
4.13187e-07
4.14208e-07
4.15227e-07
4.16246e-07
4.17264e-07
4.18281e-07
4.19297e-07
4.20313e-07
4.21328e-07
4.22342e-07
4.23355e-07
4.24367e-07
4.25379e-07
4.2639e-07
4.274e-07
4.28409e-07
4.29417e-07
4.30425e-07
4.31431e-07
4.32437e-07
4.33442e-07
4.34446e-07
4.36222e-07
9.67546e-07
8.91947e-07
6.60238e-07
5.87617e-07
8.82109e-07
6.71508e-07
9.31511e-07
1.01758e-07
3.93453e-07
3.94696e-07
3.9573e-07
3.96762e-07
3.97794e-07
3.98826e-07
3.99856e-07
4.00886e-07
4.01915e-07
4.02943e-07
4.03971e-07
4.04998e-07
4.06024e-07
4.0705e-07
4.08075e-07
4.09099e-07
4.10122e-07
4.11145e-07
4.12166e-07
4.13187e-07
4.14208e-07
4.15227e-07
4.16246e-07
4.17264e-07
4.18281e-07
4.19297e-07
4.20313e-07
4.21328e-07
4.22342e-07
4.23355e-07
4.24367e-07
4.25379e-07
4.2639e-07
4.274e-07
4.28409e-07
4.29417e-07
4.30425e-07
4.31431e-07
4.32437e-07
4.33442e-07
4.34446e-07
4.36222e-07
9.18439e-07
9.19673e-07
8.6915e-07
8.70547e-07
8.85834e-07
6.61396e-07
9.31696e-07
1.3969e-07
3.93453e-07
3.94696e-07
3.9573e-07
3.96762e-07
3.97794e-07
3.98826e-07
3.99856e-07
4.00886e-07
4.01915e-07
4.02943e-07
4.03971e-07
4.04998e-07
4.06024e-07
4.0705e-07
4.08075e-07
4.09099e-07
4.10122e-07
4.11145e-07
4.12166e-07
4.13187e-07
4.14208e-07
4.15227e-07
4.16246e-07
4.17264e-07
4.18281e-07
4.19297e-07
4.20313e-07
4.21328e-07
4.22342e-07
4.23355e-07
4.24367e-07
4.25379e-07
4.2639e-07
4.274e-07
4.28409e-07
4.29417e-07
4.30425e-07
4.31431e-07
4.32437e-07
4.33442e-07
4.34446e-07
4.36222e-07
8.36211e-07
4.00749e-07
5.76053e-07
8.19185e-07
3.45411e-07
7.57818e-07
9.30761e-07
7.66707e-08
3.93454e-07
3.94697e-07
3.9573e-07
3.96763e-07
3.97794e-07
3.98826e-07
3.99856e-07
4.00886e-07
4.01915e-07
4.02943e-07
4.03971e-07
4.04998e-07
4.06024e-07
4.0705e-07
4.08075e-07
4.09099e-07
4.10122e-07
4.11145e-07
4.12166e-07
4.13187e-07
4.14208e-07
4.15227e-07
4.16246e-07
4.17264e-07
4.18281e-07
4.19297e-07
4.20313e-07
4.21328e-07
4.22342e-07
4.23355e-07
4.24367e-07
4.25379e-07
4.2639e-07
4.274e-07
4.28409e-07
4.29417e-07
4.30425e-07
4.31431e-07
4.32437e-07
4.33442e-07
4.34446e-07
4.36222e-07
7.97538e-07
8.74084e-07
8.6845e-07
9.55048e-07
8.72264e-07
7.34856e-07
7.75676e-07
5.20074e-08
3.93454e-07
3.94697e-07
3.95731e-07
3.96763e-07
3.97794e-07
3.98826e-07
3.99856e-07
4.00886e-07
4.01915e-07
4.02943e-07
4.03971e-07
4.04998e-07
4.06024e-07
4.0705e-07
4.08075e-07
4.09099e-07
4.10122e-07
4.11145e-07
4.12166e-07
4.13187e-07
4.14208e-07
4.15227e-07
4.16246e-07
4.17264e-07
4.18281e-07
4.19297e-07
4.20313e-07
4.21328e-07
4.22342e-07
4.23355e-07
4.24367e-07
4.25379e-07
4.2639e-07
4.274e-07
4.28409e-07
4.29417e-07
4.30425e-07
4.31431e-07
4.32437e-07
4.33442e-07
4.34446e-07
4.36222e-07
9.50986e-07
9.65514e-07
9.6354e-07
8.88433e-07
6.90746e-07
4.99528e-07
7.72704e-07
1.83954e-07
3.93454e-07
3.94697e-07
3.9573e-07
3.96763e-07
3.97794e-07
3.98826e-07
3.99856e-07
4.00886e-07
4.01915e-07
4.02943e-07
4.03971e-07
4.04998e-07
4.06024e-07
4.0705e-07
4.08075e-07
4.09099e-07
4.10122e-07
4.11145e-07
4.12166e-07
4.13187e-07
4.14208e-07
4.15227e-07
4.16246e-07
4.17264e-07
4.18281e-07
4.19297e-07
4.20313e-07
4.21328e-07
4.22342e-07
4.23355e-07
4.24367e-07
4.25379e-07
4.2639e-07
4.274e-07
4.28409e-07
4.29417e-07
4.30425e-07
4.31431e-07
4.32437e-07
4.33442e-07
4.34446e-07
4.36222e-07
9.65475e-07
9.6386e-07
9.60877e-07
6.03699e-07
5.91195e-07
7.59699e-07
2.23152e-07
3.92285e-07
3.93661e-07
3.94696e-07
3.9573e-07
3.96762e-07
3.97794e-07
3.98826e-07
3.99856e-07
4.00886e-07
4.01915e-07
4.02943e-07
4.03971e-07
4.04998e-07
4.06024e-07
4.0705e-07
4.08075e-07
4.09099e-07
4.10122e-07
4.11145e-07
4.12166e-07
4.13187e-07
4.14208e-07
4.15227e-07
4.16246e-07
4.17264e-07
4.18281e-07
4.19297e-07
4.20313e-07
4.21328e-07
4.22342e-07
4.23355e-07
4.24367e-07
4.25379e-07
4.2639e-07
4.274e-07
4.28409e-07
4.29417e-07
4.30425e-07
4.31431e-07
4.32437e-07
4.33442e-07
4.34446e-07
4.36222e-07
6.92542e-07
6.84055e-07
6.9476e-07
7.09712e-07
7.67082e-07
7.36978e-07
7.68584e-07
6.96955e-07
5.24404e-07
7.00865e-07
7.02018e-07
7.72093e-07
5.79494e-07
7.74754e-07
7.00675e-07
6.87714e-07
7.00756e-07
6.69902e-07
7.76404e-07
6.73796e-07
7.76154e-07
7.00023e-07
6.70191e-07
6.99056e-07
6.09887e-07
7.75029e-07
6.93898e-07
7.69106e-07
6.97527e-07
6.75061e-07
7.00593e-07
6.45309e-07
7.71497e-07
6.36207e-07
7.75996e-07
7.00126e-07
6.64858e-07
6.99706e-07
6.11768e-07
7.75888e-07
7.15966e-07
7.73695e-07
6.98967e-07
6.56361e-07
7.0026e-07
7.58865e-07
7.6764e-07
6.75289e-07
7.7492e-07
6.99689e-07
6.56729e-07
7.0012e-07
7.21035e-07
7.76053e-07
5.78909e-07
7.76153e-07
6.99816e-07
6.84075e-07
6.99429e-07
4.88353e-07
7.73538e-07
7.40401e-07
7.73992e-07
6.98152e-07
6.53064e-07
6.93772e-07
7.56339e-07
7.72057e-07
6.2499e-07
7.67441e-07
7.67087e-07
7.32972e-07
7.6829e-07
7.20553e-07
7.66968e-07
7.04071e-07
7.68899e-07
7.71859e-07
6.26129e-07
7.74607e-07
6.58491e-07
7.71901e-07
6.08356e-07
7.75947e-07
7.7645e-07
6.63997e-07
7.76842e-07
6.52854e-07
7.75964e-07
6.51262e-07
7.76876e-07
7.74788e-07
6.96095e-07
7.66729e-07
5.78403e-07
7.76157e-07
7.25239e-07
7.70719e-07
7.72158e-07
6.4449e-07
7.74564e-07
6.66363e-07
7.72172e-07
6.57308e-07
7.76296e-07
7.7571e-07
7.08933e-07
7.72162e-07
7.03986e-07
7.75014e-07
7.32815e-07
7.73714e-07
7.68171e-07
6.87635e-07
7.75036e-07
7.21512e-07
7.67431e-07
6.78889e-07
7.75046e-07
7.75186e-07
5.77675e-07
7.75913e-07
7.47286e-07
7.7717e-07
5.55291e-07
7.76169e-07
7.73341e-07
7.52068e-07
7.73727e-07
4.74558e-07
7.74119e-07
7.49672e-07
7.73822e-07
7.71597e-07
6.08226e-07
7.6712e-07
7.54938e-07
7.71962e-07
6.31083e-07
7.67825e-07
7.66789e-07
6.97729e-07
7.69284e-07
6.82436e-07
6.92569e-07
6.9003e-07
6.94893e-07
7.71935e-07
6.46778e-07
7.76257e-07
6.87615e-07
6.9705e-07
6.65192e-07
7.00832e-07
7.76099e-07
6.19522e-07
7.77003e-07
6.54789e-07
7.00821e-07
5.55307e-07
7.00752e-07
7.75726e-07
7.20583e-07
7.7062e-07
5.39945e-07
6.98804e-07
6.65158e-07
6.99182e-07
7.72062e-07
6.12222e-07
7.75676e-07
6.78623e-07
6.98767e-07
5.1692e-07
7.00241e-07
7.75278e-07
7.45838e-07
7.7327e-07
6.16936e-07
7.00223e-07
6.58403e-07
6.99445e-07
7.64826e-07
7.12518e-07
7.74219e-07
6.84344e-07
6.97961e-07
6.79139e-07
6.98849e-07
7.7547e-07
5.78944e-07
7.76568e-07
6.79777e-07
7.00068e-07
6.3887e-07
7.00141e-07
7.74643e-07
7.33074e-07
7.7416e-07
6.32271e-07
6.99837e-07
6.92214e-07
6.99556e-07
7.72346e-07
6.42388e-07
7.67969e-07
6.93155e-07
6.97908e-07
6.43201e-07
6.93731e-07
8.29168e-07
8.85482e-07
8.71536e-07
8.36126e-07
8.68361e-07
8.99624e-07
9.16912e-07
7.63451e-07
6.98416e-07
6.81198e-07
7.31661e-07
7.42877e-07
6.94818e-07
7.72386e-07
1.29566e-07
9.64665e-08
1.29512e-07
9.19748e-08
1.83831e-07
1.39864e-07
1.83723e-07
8.87899e-07
5.47884e-07
5.53287e-07
9.02161e-07
8.90701e-07
4.98939e-07
2.65698e-07
7.29656e-07
6.89916e-07
6.36014e-07
7.64675e-07
7.57868e-07
6.45243e-07
6.80825e-07
3.52933e-08
6.9753e-07
3.51641e-08
2.04659e-07
5.20162e-08
7.72129e-07
5.19843e-08
5.68868e-07
6.63846e-07
8.4424e-07
5.51025e-07
4.11997e-07
6.1779e-07
7.32726e-07
7.71015e-07
6.97501e-07
6.77849e-07
7.64693e-07
7.6986e-07
7.29704e-07
6.96825e-07
3.52866e-08
6.99085e-07
5.00895e-08
7.76346e-07
5.20026e-08
7.77229e-07
7.4066e-08
2.92833e-07
7.88973e-07
8.32703e-07
4.39443e-07
1.12496e-07
7.40362e-07
2.33763e-07
7.6397e-07
6.9582e-07
6.73448e-07
7.37878e-07
7.64004e-07
7.21213e-07
6.96449e-07
8.48759e-08
9.02382e-07
6.62754e-07
9.32727e-07
1.22081e-07
9.31372e-07
6.79727e-07
8.33813e-07
6.50109e-07
2.95841e-07
8.47083e-07
8.13089e-07
4.12836e-07
3.26143e-07
7.28161e-07
6.95963e-07
4.21712e-07
6.91822e-07
7.69629e-07
5.21297e-07
6.85501e-07
6.94217e-07
9.02604e-07
6.96881e-07
9.3243e-07
7.68701e-07
9.31413e-07
7.71028e-07
5.0781e-07
6.56131e-07
5.94774e-07
5.99224e-07
4.09069e-07
8.18436e-07
7.17706e-07
7.70699e-07
6.63621e-07
6.39368e-07
6.28549e-07
7.55782e-07
7.30792e-07
6.96932e-07
6.96565e-07
9.02232e-07
6.93942e-07
9.31939e-07
7.71281e-07
9.31892e-07
7.68571e-07
5.31928e-07
7.89126e-07
8.44639e-07
7.43838e-07
6.75197e-07
9.03784e-07
8.8891e-07
7.54453e-07
6.95703e-07
6.02635e-07
7.70585e-07
7.6595e-07
6.3768e-07
6.89869e-07
6.13345e-07
9.02611e-07
8.67247e-08
9.30611e-07
6.44413e-07
9.31813e-07
1.24366e-07
6.40357e-07
4.49589e-07
4.80413e-07
5.29052e-07
6.68026e-07
3.23226e-07
4.25586e-07
7.52829e-07
6.98678e-07
6.73534e-07
7.44704e-07
7.72458e-07
6.47994e-07
6.91109e-07
5.3338e-08
6.99454e-07
3.50749e-08
7.75708e-07
7.90261e-08
7.76063e-07
5.20268e-08
2.11444e-07
8.46223e-07
8.58301e-07
4.43443e-07
3.36582e-07
8.77096e-07
9.13732e-07
7.51046e-07
6.94022e-07
5.80424e-07
6.27239e-07
7.56847e-07
5.8022e-07
6.83243e-07
3.52146e-08
3.14212e-07
3.52267e-08
7.72969e-07
5.19922e-08
3.98098e-07
5.20167e-08
9.01185e-07
6.08499e-07
7.6436e-07
7.46747e-07
8.98952e-07
3.9441e-07
6.67857e-07
7.70438e-07
6.95883e-07
6.6103e-07
7.43048e-07
7.68023e-07
6.89105e-07
6.97458e-07
1.29525e-07
7.10221e-08
1.29568e-07
2.23135e-07
1.83751e-07
1.02913e-07
1.83837e-07
8.95765e-07
9.10187e-07
8.87304e-07
7.27248e-07
8.49572e-07
8.79761e-07
9.11226e-07
7.25808e-07
7.64166e-07
7.03654e-07
7.03379e-07
7.31902e-07
7.02939e-07
7.64503e-07
1.83825e-07
1.39897e-07
1.83718e-07
9.29594e-08
1.83825e-07
1.40128e-07
1.83718e-07
8.67238e-07
4.18132e-07
3.10832e-07
8.95529e-07
9.12628e-07
7.99711e-07
4.44397e-07
6.66499e-07
7.69655e-07
5.27379e-07
6.64981e-07
6.62558e-07
7.66667e-07
5.41571e-07
5.20157e-08
7.71946e-07
5.19839e-08
2.04083e-07
5.20157e-08
7.724e-07
5.19839e-08
2.35417e-07
6.96271e-07
6.61907e-07
4.46446e-07
6.18294e-07
2.56203e-07
7.79915e-07
7.4227e-07
7.46841e-07
6.94314e-07
6.60852e-07
7.5633e-07
7.45984e-07
6.86435e-07
5.20022e-08
7.77372e-07
7.4199e-08
7.76241e-07
5.20024e-08
7.77404e-07
7.417e-08
1.82782e-07
8.82207e-07
6.15845e-07
7.91906e-07
8.16369e-07
8.35475e-07
8.28811e-07
7.32173e-07
7.57756e-07
7.58088e-07
5.77491e-07
7.40343e-07
7.58036e-07
7.55534e-07
1.22064e-07
9.31723e-07
6.70588e-07
9.32409e-07
1.22027e-07
9.31832e-07
6.70168e-07
8.95633e-07
5.6116e-07
2.95092e-07
9.07087e-07
7.45689e-07
4.54434e-07
2.95504e-07
7.08542e-07
7.58546e-07
5.14664e-07
6.91932e-07
6.90856e-07
7.55683e-07
4.445e-07
7.68772e-07
9.31191e-07
7.70797e-07
9.3214e-07
7.6818e-07
9.31194e-07
7.71054e-07
5.72382e-07
9.08763e-07
7.6697e-07
8.6422e-07
5.33348e-07
9.31073e-07
7.94594e-07
7.63268e-07
7.57768e-07
7.39565e-07
7.23064e-07
7.63388e-07
7.50579e-07
7.10862e-07
7.70781e-07
9.31576e-07
7.68719e-07
9.31335e-07
7.71078e-07
9.31396e-07
7.68072e-07
7.65396e-07
9.19952e-07
7.89475e-07
6.15948e-07
7.5351e-07
8.72877e-07
8.99761e-07
7.45523e-07
7.50822e-07
5.1419e-07
6.63081e-07
7.42556e-07
7.47241e-07
4.71805e-07
6.37563e-07
9.31774e-07
1.24415e-07
9.31085e-07
6.37424e-07
9.31705e-07
1.24365e-07
4.94795e-07
2.19742e-07
4.16005e-07
8.84031e-07
8.20752e-07
3.32319e-07
3.09167e-07
7.44945e-07
7.67892e-07
5.38845e-07
7.06595e-07
7.48882e-07
7.6019e-07
5.43106e-07
7.91738e-08
7.76178e-07
5.20291e-08
7.75431e-07
7.91729e-08
7.75907e-07
5.2029e-08
3.33444e-07
3.38428e-07
8.10766e-07
6.84866e-07
1.51272e-07
6.81208e-07
5.74081e-07
7.26432e-07
7.27389e-07
4.62385e-07
4.25825e-07
7.21617e-07
7.18319e-07
4.36452e-07
5.19917e-08
3.97577e-07
5.20162e-08
7.72532e-07
5.19918e-08
3.99387e-07
5.20163e-08
8.66221e-07
2.90247e-07
4.88831e-07
3.96512e-07
9.11991e-07
4.89413e-07
5.72953e-07
7.61967e-07
7.65342e-07
7.75289e-07
7.26815e-07
7.70182e-07
7.67586e-07
7.16815e-07
1.83747e-07
1.04133e-07
1.83833e-07
2.22966e-07
1.83747e-07
1.03049e-07
1.83833e-07
6.60174e-07
9.18814e-07
8.99867e-07
6.2609e-07
6.40581e-07
8.67658e-07
8.52536e-07
7.33783e-07
7.67434e-07
7.12852e-07
7.22947e-07
7.26443e-07
7.01626e-07
7.68057e-07
1.8383e-07
1.40188e-07
1.83723e-07
6.31463e-08
1.29566e-07
9.64166e-08
1.29512e-07
9.13982e-07
8.89274e-07
7.83034e-07
8.735e-07
8.74676e-07
8.38447e-07
7.4986e-07
7.00621e-07
7.70527e-07
5.49713e-07
6.69182e-07
6.80395e-07
7.71147e-07
5.55794e-07
5.20162e-08
7.72704e-07
5.19842e-08
1.46305e-07
3.52722e-08
6.97528e-07
3.51641e-08
4.01136e-07
2.54139e-07
7.45072e-07
6.00193e-07
8.17049e-07
7.30234e-07
6.50915e-07
7.34937e-07
7.49732e-07
6.32077e-07
6.79291e-07
7.30293e-07
7.59237e-07
6.1928e-07
5.20026e-08
7.77462e-07
7.4021e-08
6.99613e-07
3.51888e-08
6.9897e-07
5.00822e-08
7.95836e-07
9.16859e-07
8.81219e-07
8.70733e-07
7.63529e-07
8.62642e-07
8.07711e-07
7.17621e-07
7.59123e-07
4.30984e-07
4.40446e-07
7.13903e-07
7.50809e-07
4.34211e-07
1.2203e-07
9.31844e-07
6.8188e-07
9.03353e-07
8.48283e-08
9.02864e-07
6.65118e-07
8.9505e-07
4.22299e-07
3.28657e-07
8.63313e-07
8.51155e-07
8.72866e-07
6.13756e-07
7.59369e-07
7.58504e-07
6.37215e-07
6.81512e-07
7.50553e-07
7.61903e-07
6.57639e-07
7.68405e-07
9.31365e-07
7.71154e-07
9.02855e-07
6.94276e-07
9.02614e-07
6.9687e-07
5.49783e-07
8.47018e-07
8.83505e-07
7.94459e-07
7.44642e-07
6.97172e-07
8.35751e-07
7.66443e-07
7.59963e-07
6.68942e-07
6.63003e-07
7.65826e-07
7.60137e-07
6.41568e-07
7.71112e-07
9.31655e-07
7.6814e-07
9.02616e-07
6.96608e-07
9.02224e-07
6.93903e-07
6.90298e-07
7.37263e-07
8.7261e-07
2.47136e-07
5.62989e-07
6.97491e-07
8.87465e-07
7.5014e-07
7.59208e-07
6.45961e-07
7.27462e-07
7.43062e-07
7.61629e-07
6.96728e-07
6.48532e-07
9.31762e-07
1.2434e-07
9.01971e-07
6.12591e-07
9.02593e-07
8.66828e-08
8.73872e-07
7.46279e-07
3.98859e-07
8.78808e-07
8.45603e-07
7.19406e-07
5.1437e-07
7.58291e-07
7.64647e-07
6.06753e-07
7.26205e-07
7.62373e-07
7.67617e-07
6.04626e-07
7.90027e-08
7.75783e-07
5.20268e-08
6.98839e-07
5.32858e-08
6.98338e-07
3.50748e-08
1.49543e-07
8.25299e-07
5.33894e-07
7.6249e-07
1.03424e-07
9.02772e-07
6.07457e-07
7.08172e-07
7.33726e-07
3.64089e-07
5.09714e-07
6.90375e-07
7.45437e-07
3.57999e-07
5.19921e-08
4.00103e-07
5.20167e-08
6.98689e-07
3.51473e-08
3.1312e-07
3.52277e-08
8.53959e-07
3.66147e-07
5.11441e-07
6.39431e-07
6.56117e-07
6.27258e-07
6.49662e-07
7.66637e-07
7.71485e-07
6.99048e-07
7.66683e-07
7.62092e-07
7.70653e-07
6.97147e-07
1.83751e-07
1.02965e-07
1.83837e-07
1.60982e-07
1.29525e-07
7.10784e-08
1.29569e-07
7.71855e-07
7.00017e-07
6.93081e-07
7.67126e-07
7.67078e-07
6.98901e-07
7.75217e-07
7.65626e-07
6.73046e-07
6.95474e-07
7.67244e-07
6.93912e-07
7.65972e-07
6.89885e-07
7.71009e-07
6.93392e-07
6.97658e-07
7.69012e-07
7.67649e-07
7.73032e-07
6.97086e-07
7.51414e-07
7.28695e-07
7.67946e-07
7.33669e-07
7.2841e-07
7.4064e-07
7.7032e-07
7.68073e-07
7.67262e-07
7.73121e-07
7.66969e-07
7.6684e-07
7.64933e-07
7.74192e-07
7.6287e-07
7.52238e-07
6.51922e-07
7.66228e-07
6.53219e-07
7.61014e-07
7.62028e-07
7.70475e-07
7.68611e-07
7.66884e-07
7.71356e-07
7.67301e-07
7.72372e-07
7.7029e-07
7.75056e-07
6.97908e-07
6.98736e-07
7.72095e-07
7.72532e-07
7.73593e-07
7.0037e-07
7.55037e-07
5.26027e-07
6.91252e-07
5.63854e-07
6.02911e-07
7.67156e-07
6.88952e-07
7.71363e-07
7.00417e-07
6.98366e-07
7.76871e-07
7.76749e-07
7.71404e-07
6.97499e-07
7.09316e-07
7.56796e-07
7.68108e-07
5.74985e-07
7.59121e-07
6.08054e-07
6.88506e-07
7.7571e-07
7.72379e-07
7.71218e-07
7.70595e-07
7.71744e-07
7.7188e-07
7.74684e-07
7.5386e-07
5.57696e-07
6.01051e-07
7.55181e-07
5.78514e-07
7.62496e-07
7.47127e-07
7.66651e-07
7.75916e-07
7.75859e-07
7.69492e-07
7.76124e-07
7.6975e-07
7.68308e-07
7.73683e-07
7.00101e-07
7.00544e-07
7.76747e-07
7.73578e-07
7.77064e-07
6.9905e-07
5.88161e-07
3.62413e-07
6.97677e-07
7.48286e-07
5.44463e-07
7.69557e-07
4.95525e-07
7.67921e-07