/*--------------------------------*- C++ -*----------------------------------*\
| =========                 |                                                 |
| \\      /  F ield         | OpenFOAM: The Open Source CFD Toolbox           |
|  \\    /   O peration     | Version:  5.0                                   |
|   \\  /    A nd           | Web:      www.OpenFOAM.org                      |
|    \\/     M anipulation  |                                                 |
\*---------------------------------------------------------------------------*/
FoamFile
{
    version     2.0;
    format      ascii;
    class       volVectorField;
    location    "4.2";
    object      U;
}
// * * * * * * * * * * * * * * * * * * * * * * * * * * * * * * * * * * * * * //

dimensions      [0 1 -1 0 0 0 0];

internalField   nonuniform List<vector> 
7877
(
(-0.000650407 0.00307177 -0.000462207)
(0.00718848 -0.00333707 0.000486607)
(-0.00318706 0.00339093 0.000753528)
(0.00289463 -0.00389704 0.000238348)
(-0.00349092 -0.00794916 -0.0005049)
(0.00518244 0.00149867 4.90459e-05)
(0.00047365 -2.51033e-05 6.12975e-05)
(0.00087737 -1.9999e-05 -3.67185e-06)
(0.000860172 5.2957e-06 9.25107e-08)
(0.00084222 -4.18962e-06 1.14235e-08)
(0.000838037 -2.41887e-06 6.18586e-08)
(0.000833485 -2.10687e-06 3.35302e-08)
(0.000831615 -1.25222e-06 -2.65111e-09)
(0.000829303 -5.7992e-07 6.80457e-08)
(0.000826936 -4.32277e-07 4.74115e-08)
(0.000825208 -3.83369e-07 1.01571e-09)
(0.000823638 -3.30258e-07 5.22768e-08)
(0.000821981 -1.146e-07 -1.80177e-08)
(0.000820151 -1.12027e-07 6.65191e-08)
(0.000818609 -1.22535e-07 1.89573e-07)
(0.000817224 -1.73493e-07 5.54412e-08)
(0.000815715 -7.04201e-08 6.50621e-08)
(0.000814066 -2.77619e-07 2.03394e-08)
(0.00081254 -9.1276e-08 4.71514e-08)
(0.000811122 7.8304e-08 5.0626e-08)
(0.000809469 3.1996e-07 5.77811e-08)
(0.000807857 2.77013e-07 5.14652e-08)
(0.000806552 2.00082e-07 5.09434e-08)
(0.000804856 4.41526e-07 1.43678e-07)
(0.000803282 -1.0432e-08 5.82789e-08)
(0.000801678 -4.16578e-07 7.72072e-08)
(0.000799927 -5.0648e-07 -3.4076e-08)
(0.000798567 -4.65205e-07 6.98457e-08)
(0.000797306 -1.87632e-07 4.50533e-08)
(0.000795936 1.08839e-08 4.47073e-08)
(0.000794257 1.40446e-07 4.94962e-08)
(0.000792601 1.1713e-07 4.21727e-08)
(0.000790897 2.60314e-07 3.53869e-08)
(0.000789899 5.37509e-07 6.94214e-08)
(0.000788821 1.98547e-07 1.05039e-07)
(0.000786998 4.86845e-08 2.79776e-08)
(0.000785394 6.20106e-08 7.3256e-08)
(0.000784342 -3.02766e-07 -6.79815e-09)
(0.000782746 -4.26365e-07 1.84704e-08)
(0.000780954 -1.5177e-07 4.99974e-08)
(0.000779513 -1.41497e-07 6.35289e-08)
(0.000778305 1.95321e-08 6.19175e-08)
(0.000777231 -1.16177e-07 6.18284e-08)
(0.000775449 -3.8834e-07 4.47401e-08)
(0.000773826 -3.31125e-07 6.24829e-10)
(0.00160867 -0.000628318 -7.14626e-05)
(0.000154232 0.00725082 -0.000602379)
(0.0137921 -0.0157751 0.000336384)
(-0.00335393 -0.00919488 0.000618858)
(0.00378514 -0.00271508 -0.000176564)
(-0.00579952 -0.00338802 2.85946e-05)
(0.00130435 0.000143502 1.58672e-05)
(0.00046327 -6.02531e-06 -1.53994e-06)
(0.000887012 1.22967e-05 -1.08864e-06)
(0.00082457 1.24495e-07 -5.03807e-07)
(0.000836745 -2.00878e-07 1.79786e-07)
(0.000832776 -7.46223e-07 3.13406e-08)
(0.000831177 -7.09357e-07 3.8555e-08)
(0.000828929 -8.1589e-07 4.58082e-08)
(0.000827208 -5.09347e-07 4.94547e-08)
(0.000825301 -4.2964e-07 4.59509e-08)
(0.00082357 2.01667e-08 5.67913e-08)
(0.000822115 8.93604e-08 7.66866e-08)
(0.000820562 3.44825e-07 6.75431e-08)
(0.000818883 2.01615e-07 2.37659e-08)
(0.000817154 3.31373e-07 2.33731e-08)
(0.000815313 1.53723e-07 1.65658e-08)
(0.000813972 3.3674e-07 1.66451e-07)
(0.000812929 2.61025e-07 5.19721e-08)
(0.000811337 6.26881e-08 6.01662e-08)
(0.000809515 -1.17145e-07 1.03844e-07)
(0.000807868 -8.27559e-08 4.29267e-08)
(0.000806611 -2.47852e-07 4.62705e-08)
(0.000804685 -7.41168e-07 1.55238e-07)
(0.000802547 -4.95477e-07 7.08008e-08)
(0.000801353 -3.71048e-07 -1.48294e-07)
(0.000800071 -1.72552e-07 5.12439e-10)
(0.000798817 3.46169e-07 1.23988e-07)
(0.000797672 3.40072e-07 9.06672e-08)
(0.000796047 1.61779e-07 4.79816e-08)
(0.00079444 1.18324e-07 4.80105e-08)
(0.000793048 2.10501e-07 4.35342e-08)
(0.00079173 3.28698e-07 5.62752e-09)
(0.000789827 6.29192e-07 1.09753e-07)
(0.000787983 3.36774e-07 1.2827e-07)
(0.000786751 2.01764e-07 5.95842e-08)
(0.000785148 -1.59346e-07 5.71519e-08)
(0.00078356 -1.8507e-07 6.23784e-08)
(0.000782683 -4.12503e-07 9.33014e-08)
(0.000781418 -8.92965e-08 5.34925e-08)
(0.000779849 -6.95844e-09 5.75118e-08)
(0.000778397 3.54305e-07 5.56358e-08)
(0.000776795 6.86883e-08 -3.9006e-08)
(0.000775376 -8.58219e-08 -6.91479e-08)
(0.000774335 -1.68386e-07 1.10334e-07)
(-0.00637423 -0.00829512 0.000400848)
(-0.00495579 0.00218346 0.00018129)
(0.00234588 -0.00595351 -0.00213637)
(-0.00754276 -0.00903433 0.000310879)
(-0.00375759 0.00499877 0.000283182)
(0.00219353 0.00294116 0.000140753)
(0.00102557 -1.5102e-05 6.72563e-05)
(0.0004464 -1.25403e-06 -8.49944e-07)
(0.000879993 -7.98857e-06 -2.39392e-06)
(0.000826454 -2.48024e-06 -4.47547e-07)
(0.000836946 -1.41994e-06 1.39362e-07)
(0.000832851 -6.15781e-07 7.27903e-08)
(0.000831534 -5.49277e-07 6.82415e-08)
(0.000829558 -2.77258e-07 5.01458e-08)
(0.000827424 -1.31881e-07 5.37145e-08)
(0.000825872 -6.94636e-08 5.84536e-08)
(0.000824288 2.10622e-08 4.43825e-08)
(0.000822385 4.85697e-08 6.71058e-08)
(0.00082029 -1.19295e-07 1.01466e-07)
(0.00081859 -5.68955e-08 5.14837e-08)
(0.000817162 -1.52019e-07 3.54701e-08)
(0.000815719 5.67434e-08 4.79326e-08)
(0.000814197 3.91517e-07 1.11477e-08)
(0.000812195 2.741e-07 7.75593e-08)
(0.000810647 8.78258e-08 4.86872e-08)
(0.000809286 -3.67005e-09 4.15514e-08)
(0.000807694 -7.8869e-08 5.16041e-08)
(0.000805731 -1.12457e-07 5.93018e-08)
(0.00080455 -3.02626e-07 -4.77153e-08)
(0.00080375 2.48547e-07 4.16117e-08)
(0.000802085 4.4981e-07 1.84367e-07)
(0.000800823 5.24323e-07 5.34971e-08)
(0.000799206 4.97663e-07 2.69731e-09)
(0.000797072 3.54346e-07 1.40232e-08)
(0.000795656 1.52473e-07 9.19651e-08)
(0.000794317 1.56604e-07 5.39046e-08)
(0.000792862 6.89337e-08 5.40364e-08)
(0.000791417 -5.12257e-08 5.31882e-08)
(0.000789905 -2.12904e-07 2.72295e-08)
(0.000788284 -1.79036e-07 7.66972e-08)
(0.000786376 -2.34926e-07 6.89444e-08)
(0.000784911 -1.40438e-07 6.67116e-08)
(0.000784028 2.96017e-07 7.72443e-08)
(0.000782869 3.3645e-07 7.19064e-08)
(0.000781465 2.05662e-07 8.45709e-08)
(0.000780068 2.56283e-07 1.21414e-07)
(0.0007784 2.91487e-07 3.33765e-08)
(0.000776681 4.19861e-07 8.2129e-08)
(0.000775158 2.46056e-07 4.53589e-09)
(0.000774141 1.35914e-07 1.19655e-07)
(-0.0036656 0.00231281 0.000333522)
(0.00343047 0.00536193 0.000141859)
(0.00999416 -0.00257467 0.000388094)
(-0.00805716 -0.000782503 0.00195843)
(-0.00676377 0.0186992 -0.00235625)
(-0.0340504 -0.00307866 -0.00107647)
(0.00116218 -0.00020194 6.36297e-06)
(0.000452304 -5.79061e-05 2.97771e-05)
(0.000888798 -1.33352e-05 -1.6749e-06)
(0.000833001 -3.30578e-07 -3.53199e-07)
(0.000839059 -3.73016e-07 1.40822e-07)
(0.000833855 5.26466e-07 2.1392e-08)
(0.000831594 3.77092e-07 5.72391e-08)
(0.000829447 4.01245e-07 5.18668e-08)
(0.000827466 5.05485e-07 4.85769e-08)
(0.00082549 4.61771e-07 4.79327e-08)
(0.000823716 -3.88436e-09 5.11682e-08)
(0.000821939 -1.58788e-07 2.66799e-08)
(0.00082043 -3.7048e-07 6.31653e-08)
(0.000818843 -3.42055e-07 2.94709e-08)
(0.000817296 -3.78432e-07 8.51146e-08)
(0.000815992 -2.50087e-07 5.08329e-08)
(0.000814241 -3.11133e-07 -8.05069e-10)
(0.000812547 -1.70115e-07 2.64085e-08)
(0.000810988 2.95763e-08 2.78928e-08)
(0.000809307 1.41714e-07 5.73658e-08)
(0.000807732 2.83539e-07 5.94707e-08)
(0.000806332 4.92203e-07 5.50135e-08)
(0.000805136 9.75003e-07 1.23766e-08)
(0.000803485 6.716e-07 5.20021e-08)
(0.000801693 4.28531e-07 7.69362e-08)
(0.000800125 5.3759e-07 -1.36337e-07)
(0.0007986 2.90467e-08 4.30011e-08)
(0.000797239 -6.19149e-10 4.82078e-08)
(0.000795798 1.0094e-07 6.18141e-08)
(0.000794335 6.83131e-08 6.26154e-08)
(0.000792788 5.77846e-08 6.23236e-08)
(0.000791378 -5.54778e-08 5.46506e-08)
(0.000789668 -2.86484e-07 1.54254e-08)
(0.000787956 -3.2472e-07 -1.62746e-09)
(0.0007868 -1.30185e-07 5.26153e-08)
(0.000785811 4.03502e-07 2.23676e-08)
(0.000784153 4.06684e-07 1.61653e-07)
(0.000782566 3.81372e-07 1.11345e-08)
(0.000781314 8.80286e-08 2.65107e-08)
(0.000779952 6.23255e-08 4.30555e-08)
(0.000778598 4.05953e-08 7.56953e-08)
(0.000776736 2.99452e-07 4.49405e-08)
(0.000775016 1.53802e-07 4.24488e-08)
(0.000773857 2.47835e-07 1.63944e-07)
(0.00855057 -0.00282767 -0.000110241)
(-0.00282459 -0.00268292 0.000762397)
(-0.000350198 0.00999033 -0.000555884)
(0.00433784 -0.00193726 -0.000780398)
(0.0037456 0.00382339 0.000654085)
(-0.0029281 -0.00436533 -0.000343164)
(0.000601005 -0.00116221 1.00495e-05)
(0.000665511 -0.000101912 3.33131e-05)
(0.000852075 -9.82856e-08 -2.47529e-06)
(0.000842366 4.86728e-06 -4.48442e-08)
(0.000837979 2.69589e-06 7.54288e-08)
(0.000833764 1.83596e-06 8.52315e-08)
(0.000831358 1.49536e-06 9.40327e-08)
(0.000829705 8.51252e-07 5.33285e-08)
(0.00082749 2.96219e-07 2.54217e-08)
(0.000825229 8.50017e-08 2.81348e-08)
(0.000823509 1.47482e-07 5.32724e-08)
(0.000821927 -1.53675e-08 5.34258e-08)
(0.000820062 1.1932e-07 1.2624e-07)
(0.000818582 1.04817e-07 6.65359e-08)
(0.000817279 -2.99379e-07 7.35025e-08)
(0.000815806 5.17422e-08 2.57766e-08)
(0.000814299 -2.75649e-08 2.76148e-07)
(0.000812622 2.94911e-10 6.42942e-08)
(0.000811037 -9.89132e-09 7.29562e-08)
(0.000809602 -9.35326e-08 5.95134e-08)
(0.000808129 1.64163e-07 6.84389e-08)
(0.00080659 2.90015e-07 6.14139e-08)
(0.000804767 3.96387e-07 8.68502e-08)
(0.000803058 2.45537e-07 7.40209e-08)
(0.000801911 1.53598e-07 5.78861e-08)
(0.000800319 -1.56326e-07 4.26229e-08)
(0.00079853 1.10012e-07 8.05825e-08)
(0.00079716 9.74926e-08 5.02538e-08)
(0.000795742 1.21653e-07 6.11128e-08)
(0.000794262 -2.23793e-08 4.96824e-08)
(0.000792707 -1.06716e-07 2.43326e-08)
(0.000790988 -5.25449e-08 8.09281e-08)
(0.000789571 -1.2757e-07 5.54151e-08)
(0.000788481 -6.02842e-08 -1.10554e-07)
(0.000787287 1.14839e-07 5.97343e-08)
(0.00078558 1.48107e-07 1.2845e-07)
(0.000783996 9.56675e-08 2.31695e-08)
(0.000782467 1.4933e-07 9.31904e-08)
(0.000781064 5.64199e-09 5.63603e-08)
(0.000780008 -1.69115e-07 5.11094e-08)
(0.000778695 -5.09913e-07 1.14329e-08)
(0.000776821 -8.60142e-07 4.59359e-08)
(0.000775087 -3.37057e-07 7.56788e-08)
(0.000773642 2.59384e-08 5.4947e-08)
(-0.0136757 0.00301034 0.00130344)
(-0.0412778 -0.0131392 -0.00715971)
(-0.000950705 0.00851028 -0.0012508)
(0.000233293 0.00295066 -0.000112287)
(-0.00104341 -0.00344258 9.53934e-05)
(0.00126693 -0.00283679 0.000332298)
(0.00195037 -0.000440432 5.878e-06)
(0.00100642 1.52337e-05 6.68415e-06)
(0.000846233 2.33907e-05 -2.4052e-06)
(0.000836624 8.80977e-06 -2.26509e-08)
(0.000835207 6.05658e-06 9.2092e-08)
(0.000832314 3.41258e-06 4.06132e-08)
(0.000830337 2.31646e-06 2.67904e-08)
(0.000827931 1.29969e-06 4.92878e-08)
(0.000826498 6.34853e-07 7.69204e-08)
(0.000825299 2.15922e-07 7.55235e-08)
(0.000823588 1.90811e-07 5.35083e-08)
(0.000821901 2.35283e-07 6.85912e-08)
(0.000820578 1.21207e-07 2.25077e-08)
(0.000818319 4.75086e-07 1.93417e-07)
(0.000817229 8.59547e-07 1.44108e-07)
(0.000816331 4.26785e-07 2.88717e-07)
(0.000814177 2.65425e-07 5.64084e-08)
(0.00081257 1.61938e-07 6.80511e-08)
(0.000810872 1.92736e-07 5.97769e-08)
(0.000809524 2.15619e-07 -5.78004e-09)
(0.000808211 3.49199e-09 3.94387e-08)
(0.000806619 -9.54474e-08 1.11633e-08)
(0.000805077 1.70551e-07 2.67924e-08)
(0.000803179 -1.36658e-07 -6.07641e-08)
(0.000801189 -2.52596e-07 3.25864e-08)
(0.00080007 -3.1196e-07 -4.91009e-08)
(0.000798917 -2.46845e-07 1.28055e-08)
(0.000797252 -1.21873e-07 -1.95202e-07)
(0.000795648 -1.61327e-07 1.9052e-08)
(0.000794049 -6.07436e-08 4.50331e-08)
(0.000792751 -2.90385e-08 6.81365e-08)
(0.000791353 2.02254e-07 4.92758e-08)
(0.00078966 2.12119e-07 5.8667e-08)
(0.00078826 3.629e-08 5.2312e-08)
(0.000787061 1.2091e-07 4.68936e-08)
(0.000785787 -3.39787e-08 3.12328e-08)
(0.000784155 1.13805e-07 1.13252e-08)
(0.000782454 -1.50348e-08 4.36555e-08)
(0.000780917 2.62929e-08 4.09403e-08)
(0.000779311 -1.55595e-07 4.53725e-08)
(0.000777738 -5.00748e-07 -6.65455e-08)
(0.000776956 -7.08657e-07 6.83436e-08)
(0.000776125 -4.66182e-07 9.0735e-08)
(0.000774247 -3.22835e-07 1.26868e-07)
(-0.00871797 0.00202617 0.000428084)
(-0.0182777 -0.00309872 -0.000288054)
(0.0107025 0.00486099 -0.00165399)
(0.0106899 -0.00859279 0.00036811)
(0.0072355 -0.0108355 0.000195734)
(-0.000345469 0.00186234 0.000156582)
(0.0014078 -0.000101427 5.78981e-07)
(0.00051692 0.000157899 3.53301e-05)
(0.000866242 2.50809e-05 -1.65394e-06)
(0.000820322 9.0452e-06 -3.74614e-07)
(0.000831157 5.77414e-06 1.43702e-07)
(0.000829038 3.18333e-06 3.10606e-08)
(0.000828687 1.60566e-06 5.74336e-08)
(0.000827585 9.38142e-07 5.34936e-08)
(0.000826125 5.8306e-07 4.93173e-08)
(0.000824668 5.12134e-07 5.67189e-08)
(0.000823529 3.91294e-07 5.25675e-08)
(0.000821837 3.36721e-07 3.59792e-08)
(0.000820358 3.93683e-07 4.86764e-08)
(0.000819501 2.36534e-07 6.21151e-08)
(0.000817214 7.28736e-07 -8.01823e-08)
(0.000815059 1.64838e-07 4.30198e-08)
(0.000813965 1.31174e-07 4.53319e-08)
(0.000812529 5.35506e-08 5.79675e-08)
(0.000811103 9.07941e-08 4.57358e-09)
(0.000809365 1.46914e-07 9.42521e-08)
(0.000807741 -1.17961e-07 5.35775e-08)
(0.000806799 -2.75139e-07 4.27832e-08)
(0.000804717 -1.05236e-06 -8.06342e-08)
(0.000802531 -9.63338e-07 6.76258e-08)
(0.000801695 -6.08072e-07 -3.60572e-08)
(0.00080033 -1.03911e-07 6.26348e-08)
(0.00079877 -7.79906e-08 3.81164e-08)
(0.00079727 -1.20859e-07 -5.32671e-08)
(0.000795819 -1.17281e-07 5.94144e-08)
(0.000794428 -9.25012e-09 2.10538e-07)
(0.000793036 2.69503e-08 4.76732e-08)
(0.000791289 -1.94996e-07 3.11441e-08)
(0.000789363 4.63127e-08 3.47423e-08)
(0.000788367 4.35981e-07 -2.24525e-08)
(0.000787199 2.76137e-07 4.58503e-08)
(0.000785571 1.80968e-07 -1.06045e-08)
(0.000784021 -3.41466e-08 7.78574e-08)
(0.000782358 -1.14818e-07 4.34242e-08)
(0.000780889 -4.56363e-08 9.44777e-09)
(0.000779351 2.43457e-08 5.0169e-08)
(0.000778008 2.35325e-08 7.94221e-08)
(0.00077687 1.66842e-07 5.21254e-08)
(0.000775579 -2.0732e-07 4.28154e-08)
(0.000774626 -2.9985e-07 4.50279e-08)
(0.00242375 -0.00192767 -0.000333288)
(0.00665759 0.00426837 0.000450124)
(0.000416178 -0.0155282 0.000222293)
(0.00066061 4.34806e-05 0.0006674)
(-0.00218853 0.00293532 2.70771e-05)
(-0.0050441 -0.0010166 -0.000247071)
(0.00066575 4.38647e-05 -4.07395e-06)
(0.000383458 2.014e-05 1.3521e-05)
(0.000858889 6.30858e-06 -1.63088e-06)
(0.000812703 2.31105e-06 -3.54835e-07)
(0.000827821 1.36394e-06 1.50094e-07)
(0.000827069 6.87503e-07 4.17096e-08)
(0.000827511 3.22012e-07 6.03037e-08)
(0.000826643 7.80775e-08 5.53267e-08)
(0.000825959 -7.60236e-08 6.79682e-08)
(0.000825055 -4.35136e-08 5.42368e-08)
(0.000823365 -1.52408e-07 1.06606e-07)
(0.000821901 -1.88075e-07 6.34077e-08)
(0.000820451 -7.51125e-08 -2.55769e-08)
(0.000818735 -2.14903e-07 3.01343e-08)
(0.000817137 -5.44628e-07 4.44806e-08)
(0.000815583 -9.84753e-08 -2.66264e-08)
(0.000814037 -2.31538e-07 4.07761e-08)
(0.000812519 -1.63419e-07 4.821e-08)
(0.000810988 -3.76478e-07 5.75173e-08)
(0.000809263 -3.80636e-07 -1.25054e-07)
(0.000807684 -1.51966e-07 -8.72786e-08)
(0.000805455 -3.09827e-07 4.40493e-08)
(0.000804223 -5.84526e-07 1.7114e-07)
(0.000803741 -2.46011e-08 9.04573e-08)
(0.000802268 2.62751e-07 9.70028e-08)
(0.000800735 5.7547e-08 1.72482e-07)
(0.000798897 4.10387e-08 5.70932e-08)
(0.000797204 1.11448e-07 4.78691e-08)
(0.000795788 7.59077e-08 4.39829e-08)
(0.00079423 -1.07395e-07 4.75833e-08)
(0.000792519 -1.67803e-07 5.19079e-08)
(0.000791378 -3.78357e-07 7.09429e-08)
(0.000790448 -2.89961e-08 4.57884e-08)
(0.000788545 2.16834e-07 1.15416e-07)
(0.00078674 4.58011e-09 8.23745e-09)
(0.000785398 3.79848e-08 2.71486e-08)
(0.000783785 -1.50493e-07 3.29779e-08)
(0.000782441 -8.13472e-08 2.37691e-08)
(0.000781092 4.05568e-08 4.47871e-08)
(0.000779398 9.58341e-08 4.70273e-08)
(0.000777917 4.74566e-07 4.10755e-08)
(0.000776669 3.24011e-07 5.36665e-08)
(0.000775551 1.64808e-07 -1.96023e-08)
(0.00077488 -4.92542e-08 -3.90478e-09)
(0.00816114 0.00612162 -0.000277007)
(0.00425414 0.00157346 0.000524232)
(0.00166313 -0.00727036 -0.000205628)
(0.000956812 0.000133487 0.000132544)
(0.00226052 0.0169642 0.000707436)
(0.00481856 -0.00286726 0.000196641)
(0.000730845 -0.000790955 8.02008e-05)
(0.000458666 -2.10815e-06 5.1628e-07)
(0.000868675 -2.15484e-05 -1.30684e-06)
(0.000813942 -7.2438e-06 -3.82971e-07)
(0.000829133 -4.63128e-06 1.73931e-07)
(0.000827741 -2.29663e-06 4.40346e-08)
(0.00082793 -1.29951e-06 6.1094e-08)
(0.000827091 -9.32215e-07 5.92043e-08)
(0.000825976 -3.15119e-07 1.92272e-07)
(0.000824575 -1.44302e-07 1.25221e-07)
(0.000823351 -2.2958e-07 9.30203e-08)
(0.000821936 -2.55323e-07 1.47851e-08)
(0.000820327 -2.81681e-07 -7.85923e-09)
(0.000818916 -1.61921e-07 1.06943e-07)
(0.000817362 -1.03845e-07 5.09462e-08)
(0.000815453 -2.02903e-07 1.14442e-08)
(0.000813886 -2.17506e-07 3.61866e-08)
(0.000812352 -2.36669e-07 5.48637e-08)
(0.000810834 -2.47033e-07 2.38062e-08)
(0.000809649 -3.69671e-07 3.45185e-08)
(0.000807832 -2.44346e-07 2.14775e-08)
(0.000806262 -1.02501e-07 8.31366e-08)
(0.000805075 5.17069e-07 2.24529e-08)
(0.000803591 4.79686e-07 7.74004e-08)
(0.000801796 4.21242e-07 2.54679e-08)
(0.000800051 2.42394e-07 7.76855e-08)
(0.000798837 -6.44799e-08 -9.79444e-09)
(0.000797312 -1.43348e-07 6.11563e-08)
(0.000795546 -1.67729e-07 2.91083e-08)
(0.000794124 -2.65421e-07 5.46885e-08)
(0.000792699 -1.06299e-07 7.04571e-08)
(0.000791463 3.84526e-08 5.62213e-08)
(0.000790107 -2.43347e-07 1.05753e-07)
(0.000788408 -3.95208e-07 3.67838e-08)
(0.000786974 -2.04734e-07 1.03563e-08)
(0.000785377 -2.50647e-07 -7.24361e-09)
(0.000783872 -5.4772e-08 7.06427e-08)
(0.000782597 5.5403e-08 5.54229e-08)
(0.00078111 -1.3898e-08 5.0093e-08)
(0.000779892 2.99831e-08 5.00202e-08)
(0.00077829 1.75362e-07 2.20141e-08)
(0.000776479 3.89616e-07 4.26263e-08)
(0.000775111 6.8666e-07 -5.9081e-08)
(0.000774479 4.69124e-07 8.96383e-08)
(0.0034252 -0.00248096 -7.98084e-06)
(-0.00495351 -0.00894138 0.000280473)
(-0.00696905 -0.00684553 0.000158979)
(-0.00169642 -0.00200688 -0.00123325)
(0.0131384 0.0108493 0.0034006)
(0.00138354 -0.000382686 8.29295e-06)
(0.00116674 -9.63408e-05 9.34987e-07)
(0.000829799 -1.50493e-05 -3.17827e-06)
(0.000851548 -2.9368e-05 4.39923e-07)
(0.000834088 -1.09117e-05 -5.62831e-08)
(0.000834088 -6.84648e-06 1.24578e-07)
(0.000831284 -3.88031e-06 7.57876e-08)
(0.000829246 -2.3062e-06 6.52542e-08)
(0.000827891 -9.63123e-07 7.84263e-08)
(0.000826955 -5.54967e-07 5.44226e-08)
(0.000825167 -2.04539e-07 5.51718e-08)
(0.00082323 -5.46854e-08 4.95828e-08)
(0.000821839 2.22187e-08 5.84942e-08)
(0.00082057 -2.04396e-08 8.59623e-08)
(0.000818959 -1.19743e-07 5.91837e-08)
(0.000817087 -2.6786e-07 3.52893e-08)
(0.000815443 -2.31946e-07 7.18529e-08)
(0.000813997 -5.9494e-08 5.04298e-08)
(0.000812485 -8.94278e-08 4.72497e-08)
(0.000810825 9.14784e-08 1.73059e-08)
(0.00080927 1.40448e-07 7.88447e-08)
(0.000808021 -5.23086e-08 5.79257e-08)
(0.000806408 1.60923e-07 4.8797e-08)
(0.00080495 1.8014e-07 8.709e-08)
(0.000803618 -1.48644e-08 3.31197e-08)
(0.000801969 -6.76385e-08 1.40105e-07)
(0.000800127 -1.10624e-07 -1.77471e-08)
(0.000798415 -1.69409e-07 -1.04299e-07)
(0.000797076 -3.29028e-07 4.96219e-08)
(0.000795638 -1.77299e-07 4.46608e-08)
(0.000794309 -1.84981e-08 5.7113e-08)
(0.0007929 -7.14445e-08 4.11481e-08)
(0.000791208 -9.71175e-08 4.83516e-08)
(0.000789908 -5.25832e-07 5.48831e-08)
(0.000788597 -2.65177e-07 5.99006e-08)
(0.000786924 -1.9707e-07 5.8247e-08)
(0.000785587 -2.48162e-07 9.07546e-08)
(0.000784169 -1.84926e-07 7.88577e-08)
(0.000782492 1.27512e-07 2.77473e-08)
(0.00078106 -6.55817e-08 3.77992e-08)
(0.000779633 4.39342e-09 4.6462e-08)
(0.000778363 -3.68719e-07 3.04447e-08)
(0.000777303 1.65057e-08 3.30905e-08)
(0.000775636 2.33394e-07 -3.62814e-08)
(0.000773438 2.9264e-07 6.72753e-08)
(-0.00832339 -0.000323139 0.00024848)
(-0.00906236 0.00825585 -0.00270322)
(-0.0034665 -0.00336142 0.00794615)
(0.00170599 0.00538961 0.00118295)
(0.0054992 -0.0133202 -0.00079844)
(0.00935737 -0.00583075 4.73086e-05)
(0.00135193 -0.000215698 9.52256e-05)
(0.0014724 -4.3116e-05 3.7434e-07)
(0.00144053 3.47607e-06 3.42478e-07)
(0.00140772 -1.00483e-05 6.08747e-07)
(0.00139934 -5.8569e-06 2.22522e-07)
(0.00139098 -4.61126e-06 2.70252e-07)
(0.00138738 -2.77052e-06 2.68538e-07)
(0.00138328 -1.42388e-06 3.85084e-07)
(0.00137921 -9.84745e-07 3.54047e-07)
(0.00137623 -7.57299e-07 2.73283e-07)
(0.00137352 -6.43565e-07 3.45618e-07)
(0.00137073 -2.7283e-07 2.44429e-07)
(0.00136771 -2.43642e-07 3.98193e-07)
(0.00136513 -2.63903e-07 4.51644e-07)
(0.00136282 -2.75801e-07 3.93507e-07)
(0.00136024 -4.78573e-08 3.66654e-07)
(0.00135747 -3.58954e-07 2.97485e-07)
(0.00135496 -1.00616e-07 2.97029e-07)
(0.00135257 2.20381e-07 2.94565e-07)
(0.00134983 6.18869e-07 3.63033e-07)
(0.00134721 5.09356e-07 3.57812e-07)
(0.00134509 3.25368e-07 3.41112e-07)
(0.00134217 6.92046e-07 4.86348e-07)
(0.00133944 -9.89015e-08 3.73688e-07)
(0.00133684 -8.18941e-07 3.58079e-07)
(0.0013339 -8.7333e-07 1.55268e-07)
(0.00133165 -7.42914e-07 3.3265e-07)
(0.00132968 -2.70505e-07 4.07783e-07)
(0.0013274 9.79113e-08 3.2474e-07)
(0.00132454 2.90952e-07 3.16034e-07)
(0.00132171 1.93293e-07 3.21967e-07)
(0.00131886 4.4214e-07 2.82783e-07)
(0.00131714 9.25644e-07 2.91642e-07)
(0.00131535 4.15932e-07 3.79661e-07)
(0.00131238 1.09994e-07 2.92481e-07)
(0.00130969 9.71264e-08 3.31433e-07)
(0.00130795 -5.09131e-07 1.82099e-07)
(0.00130527 -6.36389e-07 2.41262e-07)
(0.00130233 -2.67244e-07 3.41562e-07)
(0.00129992 -2.98315e-07 3.29162e-07)
(0.0012978 -2.69487e-08 2.93682e-07)
(0.00129601 -2.6728e-07 3.32046e-07)
(0.00129302 -6.31479e-07 3.51615e-07)
(0.00129024 -5.31932e-07 1.8942e-07)
(-0.00230759 -0.0099456 0.000926865)
(0.000381009 0.00947119 -0.00215748)
(0.0153563 -0.0266248 0.000346382)
(0.00663233 -0.00208365 0.000185686)
(0.0101457 0.00464831 -0.000934442)
(-0.00272042 -0.013391 -0.00133586)
(0.000776131 -1.85696e-05 -1.1481e-05)
(0.00141749 -2.70302e-05 -7.89122e-08)
(0.00148755 1.96573e-05 4.30665e-07)
(0.00137964 -2.40008e-07 3.46786e-07)
(0.00139794 -6.23828e-07 3.479e-07)
(0.00139026 -1.41908e-06 3.45453e-07)
(0.00138695 -1.27084e-06 3.22992e-07)
(0.00138284 -1.38517e-06 3.4517e-07)
(0.00137977 -8.71688e-07 3.45051e-07)
(0.00137645 -7.19989e-07 3.05526e-07)
(0.00137347 1.61842e-08 3.43995e-07)
(0.00137101 1.61557e-07 4.0897e-07)
(0.00136836 5.78852e-07 3.39596e-07)
(0.00136554 3.37984e-07 3.09307e-07)
(0.00136271 5.35499e-07 -1.02e-07)
(0.00135966 2.535e-07 3.30248e-07)
(0.00135733 5.8331e-07 7.76082e-07)
(0.0013556 5.00226e-07 5.75015e-07)
(0.00135299 1.83095e-07 3.36003e-07)
(0.00134989 -1.02391e-07 4.45778e-07)
(0.00134711 -5.21439e-08 3.40512e-07)
(0.00134502 -3.89325e-07 3.36717e-07)
(0.00134184 -1.27189e-06 5.39224e-07)
(0.00133829 -8.40685e-07 3.34901e-07)
(0.00133636 -6.32072e-07 3.95272e-08)
(0.00133431 -3.06145e-07 2.6583e-07)
(0.00133216 6.49694e-07 4.76647e-07)
(0.00133023 6.80325e-07 4.31814e-07)
(0.0013275 2.93106e-07 3.35148e-07)
(0.00132475 1.96593e-07 3.346e-07)
(0.00132242 3.49498e-07 3.1906e-07)
(0.00132024 5.56953e-07 8.59632e-08)
(0.0013171 1.05484e-06 4.61778e-07)
(0.00131401 6.26793e-07 9.78282e-07)
(0.00131187 3.30441e-07 3.33403e-07)
(0.00130921 -2.34687e-07 3.62866e-07)
(0.00130665 -3.0225e-07 3.01546e-07)
(0.00130518 -7.15077e-07 5.60976e-07)
(0.00130299 -1.82138e-07 3.56164e-07)
(0.00130042 -9.51303e-08 3.4904e-07)
(0.00129802 5.29978e-07 3.18643e-07)
(0.00129534 7.65274e-08 2.11179e-07)
(0.00129295 -2.15294e-07 9.56878e-08)
(0.00129118 -3.04365e-07 4.09955e-07)
(0.000429293 -0.0159029 0.000410673)
(-0.00803219 0.0034567 -8.08274e-06)
(-0.00339393 -0.0117206 0.00816594)
(-0.0129779 -0.0129499 -0.00384785)
(0.00864176 0.000307634 -0.0063738)
(-0.00549229 0.00105889 -0.00112067)
(0.000693147 -6.81898e-05 -2.69029e-05)
(0.00137588 1.94012e-06 2.6407e-06)
(0.00147457 -9.421e-06 -4.21271e-07)
(0.00138212 -1.91562e-06 3.42056e-07)
(0.00139786 -1.06941e-06 3.49007e-07)
(0.00139018 -2.46858e-07 3.82619e-07)
(0.00138743 -4.39449e-07 3.86392e-07)
(0.00138379 -1.74193e-07 3.46265e-07)
(0.00138005 -5.61773e-08 3.44255e-07)
(0.00137734 -3.46809e-08 3.43044e-07)
(0.00137462 7.53121e-08 3.44174e-07)
(0.00137143 8.54956e-08 2.99753e-07)
(0.00136793 -2.13781e-07 3.80433e-07)
(0.00136507 -9.51795e-08 3.38722e-07)
(0.00136271 -2.17395e-07 2.75022e-07)
(0.0013603 9.49544e-08 3.36944e-07)
(0.00135777 6.33394e-07 2.83772e-07)
(0.00135445 4.87166e-07 3.13096e-07)
(0.00135182 1.24626e-07 3.48715e-07)
(0.00134953 9.65234e-09 3.20811e-07)
(0.00134685 -9.45049e-08 3.40707e-07)
(0.00134357 -1.28764e-07 3.25634e-07)
(0.00134161 -4.49385e-07 1.79693e-07)
(0.00134025 4.90987e-07 3.26786e-07)
(0.00133751 8.81149e-07 5.25389e-07)
(0.0013355 9.25621e-07 4.74406e-07)
(0.00133288 8.16636e-07 2.2917e-07)
(0.00132923 5.94508e-07 1.93338e-07)
(0.00132679 2.15628e-07 3.76606e-07)
(0.00132461 2.2341e-07 3.42735e-07)
(0.00132216 1.29538e-07 2.86265e-07)
(0.00131973 -4.96011e-08 3.50952e-07)
(0.00131722 -2.9858e-07 3.12765e-07)
(0.00131444 -2.71986e-07 3.86092e-07)
(0.0013113 -3.32607e-07 3.66749e-07)
(0.0013089 -1.61452e-07 3.63954e-07)
(0.00130736 5.79088e-07 3.18707e-07)
(0.00130543 6.46278e-07 4.08041e-07)
(0.00130311 4.6169e-07 3.48424e-07)
(0.00130082 5.08194e-07 4.12125e-07)
(0.00129802 5.22901e-07 3.45495e-07)
(0.00129508 6.7964e-07 3.37674e-07)
(0.00129255 3.83727e-07 2.64695e-07)
(0.00129088 2.17153e-07 5.15042e-07)
(-0.00311872 0.00528135 -0.000384517)
(0.00836003 0.00199266 0.000647956)
(0.0127466 -0.00414108 0.0019799)
(-0.00377372 -0.0133961 0.00776991)
(-0.050922 -0.0247798 0.00779827)
(0.0151164 -0.00203301 0.000398625)
(0.0011745 -0.00197251 5.63772e-05)
(0.0010835 -2.35066e-05 4.70776e-05)
(0.00148462 -1.59774e-05 2.89096e-07)
(0.00139049 3.12216e-06 5.62184e-07)
(0.00139999 1.60569e-06 3.52481e-07)
(0.00139103 2.24089e-06 3.41831e-07)
(0.00138702 1.45889e-06 3.45225e-07)
(0.00138331 1.17381e-06 3.44375e-07)
(0.00137994 1.1283e-06 3.44725e-07)
(0.00137661 9.37802e-07 3.44588e-07)
(0.00137362 1.14333e-07 3.43609e-07)
(0.00137065 -1.75107e-07 2.7613e-07)
(0.00136813 -5.64498e-07 3.68662e-07)
(0.00136553 -5.36764e-07 3.19314e-07)
(0.00136294 -5.73204e-07 3.84015e-07)
(0.00136072 -3.96063e-07 3.40425e-07)
(0.00135782 -4.97023e-07 1.69577e-07)
(0.00135496 -2.93202e-07 1.49995e-07)
(0.00135239 2.42317e-08 2.81216e-07)
(0.00134962 2.15474e-07 2.93598e-07)
(0.00134694 4.65169e-07 3.9463e-07)
(0.00134457 8.55706e-07 3.63888e-07)
(0.00134262 1.70397e-06 2.89476e-07)
(0.00133994 1.20918e-06 3.16582e-07)
(0.0013369 8.62997e-07 3.78764e-07)
(0.00133422 1.03378e-06 9.95719e-08)
(0.00133174 1.43753e-07 3.24586e-07)
(0.00132947 2.28037e-10 3.31346e-07)
(0.00132704 1.83155e-07 3.34596e-07)
(0.00132464 1.04616e-07 3.40372e-07)
(0.00132208 6.24996e-08 3.35293e-07)
(0.0013197 -9.87824e-08 3.47926e-07)
(0.00131682 -5.33395e-07 2.05998e-07)
(0.00131397 -5.83982e-07 2.16601e-07)
(0.00131201 -1.77967e-07 2.81941e-07)
(0.00131034 6.75286e-07 2.91947e-07)
(0.00130765 7.31699e-07 5.45819e-07)
(0.00130502 6.85021e-07 1.56209e-07)
(0.00130281 1.79697e-07 3.48187e-07)
(0.00130049 1.10008e-07 3.2541e-07)
(0.00129823 3.33683e-08 3.74496e-07)
(0.00129517 4.3154e-07 3.13604e-07)
(0.00129236 2.7313e-07 3.20951e-07)
(0.00129043 4.13309e-07 5.44988e-07)
(0.00521366 -0.0068001 -1.39636e-05)
(0.00429264 -0.00857706 0.00215503)
(0.000765955 0.00577863 0.0007179)
(-0.0127731 0.0109894 -0.00184137)
(0.00512353 -0.00788863 0.00170555)
(-0.0065732 -0.0101947 0.000610843)
(-0.000857278 -0.0029566 -2.37879e-05)
(0.00126194 0.000377255 3.84333e-05)
(0.00141941 5.45413e-06 8.65248e-07)
(0.00140351 1.15727e-05 4.32632e-07)
(0.00139669 6.69139e-06 3.67716e-07)
(0.00138994 4.41743e-06 3.84352e-07)
(0.00138606 3.3387e-06 3.58238e-07)
(0.00138335 1.96136e-06 3.4598e-07)
(0.00137973 8.71886e-07 2.7529e-07)
(0.00137606 3.97425e-07 3.48904e-07)
(0.00137322 4.01766e-07 3.43066e-07)
(0.00137058 7.45809e-08 3.41961e-07)
(0.00136748 2.72023e-07 4.20076e-07)
(0.00136507 2.71321e-07 3.1489e-07)
(0.00136289 -3.95373e-07 3.74274e-07)
(0.0013604 1.25352e-07 3.31654e-07)
(0.0013579 -4.26321e-08 9.13414e-07)
(0.0013551 -1.02379e-08 1.14175e-07)
(0.00135245 -9.38193e-10 2.70449e-07)
(0.00135008 -1.89395e-07 3.71109e-07)
(0.00134765 2.50834e-07 3.90554e-07)
(0.00134511 4.76049e-07 3.33776e-07)
(0.00134204 6.92056e-07 3.2881e-07)
(0.00133919 4.53433e-07 3.63165e-07)
(0.00133728 2.70124e-07 3.61324e-07)
(0.0013346 -2.34948e-07 2.97022e-07)
(0.00133158 2.44554e-07 3.50492e-07)
(0.00132927 1.63779e-07 3.30213e-07)
(0.00132692 2.18022e-07 3.58566e-07)
(0.00132446 -4.03441e-08 3.30382e-07)
(0.00132191 -2.10867e-07 3.36102e-07)
(0.00131899 -1.73182e-07 3.0863e-07)
(0.00131661 -2.86048e-07 3.39574e-07)
(0.00131488 -1.49114e-07 -4.49383e-08)
(0.00131288 1.52389e-07 3.34115e-07)
(0.00131003 2.14677e-07 4.10741e-07)
(0.00130736 9.64993e-08 3.03543e-07)
(0.00130473 1.42192e-07 3.57977e-07)
(0.00130239 -1.28979e-07 3.18911e-07)
(0.00130063 -3.44379e-07 3.23904e-07)
(0.00129842 -8.88589e-07 1.12625e-07)
(0.00129538 -1.37752e-06 2.93661e-07)
(0.00129252 -5.35837e-07 4.87557e-07)
(0.00129003 6.06692e-08 3.46846e-07)
(-0.000848214 0.000259288 0.00374147)
(0.0127073 -0.00732993 -0.00878303)
(-0.00232816 -0.00613427 0.00199639)
(-0.0106832 0.0119528 0.000342169)
(0.00600263 -0.00247363 0.00149464)
(0.0118426 -0.00143122 -0.00156146)
(0.00459556 0.000781043 3.5871e-06)
(0.000823119 9.29786e-05 -1.84645e-05)
(0.00140758 4.22077e-05 7.63627e-07)
(0.00139232 1.69838e-05 3.99336e-07)
(0.00139093 1.15701e-05 3.11383e-07)
(0.00138676 6.62648e-06 3.05987e-07)
(0.00138391 4.44596e-06 1.28424e-07)
(0.0013802 2.54206e-06 3.43745e-07)
(0.00137797 1.32987e-06 3.43761e-07)
(0.00137601 5.52809e-07 3.57143e-07)
(0.00137321 4.34357e-07 3.44443e-07)
(0.00137048 4.64487e-07 3.83077e-07)
(0.00136837 2.55507e-07 2.99757e-07)
(0.0013647 8.23351e-07 6.47898e-07)
(0.00136276 1.33851e-06 3.3956e-07)