/*--------------------------------*- C++ -*----------------------------------*\
| =========                 |                                                 |
| \\      /  F ield         | OpenFOAM: The Open Source CFD Toolbox           |
|  \\    /   O peration     | Version:  5.0                                   |
|   \\  /    A nd           | Web:      www.OpenFOAM.org                      |
|    \\/     M anipulation  |                                                 |
\*---------------------------------------------------------------------------*/
FoamFile
{
    version     2.0;
    format      ascii;
    class       volVectorField;
    location    "4.2";
    object      U_0;
}
// * * * * * * * * * * * * * * * * * * * * * * * * * * * * * * * * * * * * * //

dimensions      [0 1 -1 0 0 0 0];

internalField   nonuniform List<vector> 
7877
(
(-0.000872497 0.0029188 -0.000475086)
(0.006375 -0.00350298 0.000468925)
(0.00228419 0.00368259 0.000193943)
(0.003536 -0.00304226 0.000240943)
(-0.00499488 -0.00655539 -0.000328097)
(0.00597119 0.00421074 8.75378e-05)
(0.00060876 -8.80407e-05 6.5918e-05)
(0.000947687 -8.24374e-05 -3.12678e-06)
(0.000907507 -2.90072e-05 -5.76667e-08)
(0.000869348 -2.46926e-05 -4.41159e-08)
(0.000855488 -1.45836e-05 1.01229e-07)
(0.000845344 -9.31171e-06 6.32082e-08)
(0.000839949 -5.56803e-06 7.09263e-09)
(0.000835883 -3.45218e-06 8.65888e-08)
(0.000832585 -2.12141e-06 5.07743e-08)
(0.000830221 -1.20144e-06 1.18982e-08)
(0.000828188 -9.84922e-07 5.3473e-08)
(0.000826219 -6.92244e-07 8.75481e-08)
(0.000824398 -5.06596e-07 8.17187e-08)
(0.000822929 -4.85265e-07 1.05395e-07)
(0.000821587 -3.43888e-07 6.02443e-08)
(0.000819969 -1.36092e-07 6.24372e-08)
(0.000818266 -1.99575e-07 3.96726e-08)
(0.000816669 -1.04788e-07 4.5012e-08)
(0.000815187 9.39323e-08 6.32076e-08)
(0.000813717 2.81927e-07 5.02753e-08)
(0.000812373 2.67901e-07 7.61684e-08)
(0.000811075 1.36685e-07 5.06152e-08)
(0.000809148 3.05088e-07 9.21241e-08)
(0.000807347 -9.5458e-08 1.71465e-07)
(0.000806067 -6.1182e-07 -5.74621e-08)
(0.000804439 -5.13065e-07 8.958e-09)
(0.00080294 -4.08708e-07 1.04579e-07)
(0.000801891 -2.01592e-07 6.16634e-08)
(0.000800501 1.15472e-07 3.77299e-08)
(0.000798696 1.102e-07 5.4101e-08)
(0.000796965 -8.59035e-08 9.62297e-08)
(0.000795376 1.20594e-07 3.27449e-08)
(0.000793891 3.69571e-07 -5.24942e-08)
(0.000792703 4.44676e-07 7.41731e-08)
(0.000791423 9.23384e-08 3.0469e-08)
(0.0007898 1.50394e-08 6.25874e-08)
(0.000788471 -3.42799e-07 8.15463e-08)
(0.000786861 -1.99365e-07 2.40333e-07)
(0.000785289 -1.36077e-07 7.58062e-08)
(0.000783875 -2.25908e-07 3.05021e-08)
(0.00078243 -2.72775e-07 6.40278e-08)
(0.000781147 -4.78449e-07 1.61538e-07)
(0.000779405 -2.95448e-07 -2.20016e-08)
(0.000777581 -2.19247e-07 8.48053e-08)
(0.00233521 -0.000497843 -0.000167492)
(0.000479464 0.00800361 -0.000593812)
(0.0147636 -0.013789 6.01238e-05)
(-0.00348184 -0.00880897 0.000528799)
(0.00375444 -0.00457022 -0.000134199)
(-0.00617502 -0.00396815 2.70327e-05)
(0.00138853 0.000123406 1.80836e-05)
(0.000527076 -1.95068e-05 -1.17068e-06)
(0.000943571 8.77538e-06 -1.34673e-06)
(0.000858214 -2.56169e-06 -4.55339e-07)
(0.000858837 -1.9391e-06 1.58065e-07)
(0.000847552 -1.93362e-06 2.87101e-08)
(0.00084148 -1.34662e-06 5.46966e-08)
(0.000836667 -1.02248e-06 4.97791e-08)
(0.000833589 -6.49336e-07 5.15219e-08)
(0.000830648 -4.25757e-07 6.55282e-08)
(0.000828252 1.5949e-08 6.00647e-08)
(0.000826576 2.59724e-07 7.84964e-08)
(0.000824844 4.53343e-07 4.77897e-08)
(0.000823114 2.94799e-07 2.46559e-08)
(0.000821471 2.22073e-07 8.12258e-08)
(0.000819742 1.04989e-07 4.89923e-08)
(0.000818166 1.66703e-07 4.78626e-08)
(0.000817003 2.55098e-07 3.49656e-08)
(0.000815593 1.34282e-07 -2.57663e-08)
(0.000813851 8.09802e-08 7.24379e-08)
(0.00081213 6.46316e-08 4.61055e-08)
(0.0008107 -1.25072e-07 4.73419e-08)
(0.000809044 -5.29944e-07 6.84384e-09)
(0.000807014 -4.23684e-07 4.96272e-08)
(0.000805744 -3.9659e-07 1.33219e-07)
(0.000804698 -2.2366e-07 5.58273e-08)
(0.000803323 3.18924e-07 1.91195e-07)
(0.000802108 5.59584e-07 2.99354e-08)
(0.000800406 8.56177e-08 4.49498e-08)
(0.000798577 6.3895e-08 8.99668e-08)
(0.000797264 1.33228e-07 4.56561e-08)
(0.000795843 2.01126e-07 5.47639e-08)
(0.000794224 3.47925e-07 1.92359e-08)
(0.000792447 4.54113e-07 7.56453e-08)
(0.000790836 1.8429e-07 1.01842e-08)
(0.000789314 2.25358e-08 6.74503e-08)
(0.000788021 -2.36291e-07 4.34096e-08)
(0.000786982 -3.88433e-07 5.92292e-08)
(0.000785416 -1.23667e-07 6.26528e-08)
(0.000783832 -1.1711e-07 5.72149e-08)
(0.000782451 5.1567e-08 6.6768e-08)
(0.000781016 -1.39704e-07 5.20473e-08)
(0.000779373 -3.66821e-07 8.64169e-08)
(0.000778338 -2.42845e-07 2.87316e-08)
(-0.00664364 -0.00791416 0.000413516)
(-0.0071105 0.0023076 0.000413329)
(0.00391576 -0.00815166 -0.00398787)
(-0.00850729 -0.0108312 0.000404926)
(-0.00292608 0.00463235 0.000472814)
(0.00828334 0.00447386 0.000395289)
(0.00121117 3.25801e-06 6.8828e-05)
(0.000524572 9.22295e-06 -5.42149e-07)
(0.000929063 1.78831e-05 -2.34443e-06)
(0.000855814 1.26905e-05 -4.10675e-07)
(0.000856274 7.49763e-06 1.39222e-07)
(0.000846089 4.7454e-06 8.34532e-08)
(0.000841095 2.6539e-06 3.65896e-08)
(0.00083676 1.68213e-06 4.93038e-08)
(0.000833336 1.00401e-06 5.40987e-08)
(0.000831055 5.27571e-07 5.29936e-08)
(0.000829045 3.86988e-07 4.28032e-08)
(0.000826763 2.52486e-07 4.2978e-08)
(0.000824439 8.52685e-08 9.94106e-08)
(0.000822638 1.1683e-07 9.85047e-08)
(0.000821348 1.09178e-07 1.5923e-07)
(0.000819897 1.25393e-07 4.82038e-08)
(0.000818452 3.08764e-07 1.33153e-07)
(0.000816626 2.56503e-07 -7.87414e-08)
(0.000814967 9.98013e-08 4.59477e-08)
(0.000813629 7.62286e-09 8.81657e-08)
(0.000812115 -9.9891e-08 6.65713e-08)
(0.000810334 -7.1227e-08 5.74089e-08)
(0.000808778 -2.09448e-07 4.88231e-12)
(0.000807519 2.82427e-07 3.33603e-08)
(0.00080632 6.99591e-07 9.05424e-08)
(0.000805333 6.48383e-07 6.3711e-08)
(0.000803917 4.14496e-07 3.14197e-07)
(0.000801595 3.45388e-07 1.4736e-07)
(0.000799878 7.70445e-09 9.01976e-08)
(0.000798755 1.26655e-07 5.42525e-08)
(0.000797135 1.34465e-07 5.65006e-08)
(0.000795642 7.41282e-08 6.57259e-08)
(0.000794203 1.5284e-07 4.85154e-08)
(0.000792495 4.96496e-09 1.01105e-07)
(0.000790882 9.80494e-08 5.59254e-08)
(0.000789275 1.29921e-07 6.52231e-08)
(0.00078796 4.17549e-07 1.15782e-07)
(0.000787004 4.04906e-07 1.14216e-07)
(0.000785631 2.36504e-07 8.84276e-08)
(0.000784095 2.41907e-07 5.50034e-08)
(0.000782403 3.35129e-07 7.19802e-08)
(0.000780625 1.61386e-07 5.59608e-08)
(0.000779283 8.73875e-08 6.11097e-08)
(0.000778341 8.38304e-08 7.21925e-08)
(-0.00372211 0.00244792 0.000366322)
(0.00323182 0.00562505 0.000172613)
(0.00725544 -0.00188499 0.000435497)
(-0.00705772 -0.00205466 0.00167643)
(-0.00864903 0.0162182 -0.00484182)
(-0.00772795 -0.00200547 -0.000582636)
(0.0012546 5.49116e-05 7.75408e-06)
(0.000472969 -3.19819e-05 2.96371e-05)
(0.000907184 2.94352e-05 -1.77143e-06)
(0.000845387 2.52212e-05 -3.50072e-07)
(0.000848862 1.50127e-05 1.29801e-07)
(0.000841472 9.87368e-06 -2.39465e-08)
(0.000837636 6.13685e-06 5.59224e-08)
(0.000834595 3.88028e-06 5.28725e-08)
(0.000832141 2.50022e-06 5.12293e-08)
(0.000829873 1.62583e-06 4.94937e-08)
(0.000827906 7.31936e-07 5.26412e-08)
(0.000826198 2.31474e-07 9.9437e-08)
(0.000824674 -9.648e-08 3.88167e-08)
(0.000823144 -1.34917e-07 2.91199e-08)
(0.000821482 1.33276e-08 7.45028e-08)
(0.00081999 -4.2028e-08 5.23109e-08)
(0.000818328 -1.12676e-07 2.73603e-08)
(0.00081674 -7.5997e-08 4.86711e-08)
(0.000815281 1.06195e-07 2.65574e-08)
(0.000813601 1.68837e-07 1.69615e-07)
(0.000812031 2.50215e-07 6.46936e-08)
(0.000810563 3.325e-07 8.97432e-08)
(0.000809484 7.68851e-07 1.20742e-07)
(0.000808148 6.62204e-07 3.89124e-08)
(0.000806196 7.77214e-07 1.42018e-08)
(0.000804337 7.08235e-07 -3.93642e-08)
(0.00080294 1.78256e-07 4.64032e-08)
(0.000801597 -1.28124e-07 4.5521e-08)
(0.000800131 1.43326e-07 5.13633e-08)
(0.000798735 3.36631e-08 4.22653e-08)
(0.000797198 -2.40644e-08 1.83446e-07)
(0.000795865 5.71955e-08 3.24099e-08)
(0.000794137 -3.74211e-07 -1.31823e-08)
(0.000792379 -2.53789e-07 -3.80307e-08)
(0.000790992 1.93799e-08 4.67295e-08)
(0.000789712 1.79363e-07 9.97104e-08)
(0.000788361 4.86893e-07 1.24341e-07)
(0.000786751 4.2509e-07 1.8113e-08)
(0.000785208 1.05948e-07 -6.3485e-08)
(0.000783952 2.22096e-08 4.13514e-08)
(0.000782347 -6.23638e-08 8.27093e-08)
(0.000780704 6.33444e-08 3.25329e-08)
(0.000779273 2.70497e-07 4.45985e-08)
(0.000778124 2.23322e-07 4.80408e-08)
(0.00830096 -0.00299435 -0.00012209)
(-0.00260084 -0.00305854 0.000622546)
(-0.000742607 0.00903586 -0.000498227)
(0.00351063 -0.00147687 -0.000825422)
(0.00385053 0.00359671 0.000592069)
(-0.00381401 -0.00515872 -0.000418097)
(0.000527544 -0.00107681 1.07706e-05)
(0.000659917 -7.17722e-05 3.45544e-05)
(0.000844871 3.77747e-05 -2.73417e-06)
(0.000837345 2.9018e-05 4.84621e-08)
(0.000837008 1.78792e-05 6.20397e-08)
(0.000834943 1.12601e-05 3.52873e-07)
(0.000833568 7.27938e-06 1.43437e-07)
(0.000832192 4.56892e-06 5.20037e-08)
(0.000830503 2.84021e-06 5.47104e-08)
(0.000828835 1.77679e-06 4.80961e-08)
(0.000827297 1.21301e-06 5.49426e-08)
(0.000825727 7.10388e-07 5.41679e-08)
(0.000823982 5.67011e-07 5.02717e-08)
(0.000822776 5.38919e-07 1.2469e-10)
(0.000821465 1.9589e-07 6.62611e-08)
(0.000819741 2.1632e-07 6.69505e-08)
(0.000818411 1.35828e-08 6.47682e-08)
(0.000816901 8.9561e-08 1.11262e-07)
(0.000815274 2.4821e-08 6.69339e-08)
(0.000813807 8.567e-09 4.64941e-08)
(0.000812317 1.40985e-07 6.83645e-08)
(0.000810977 2.12599e-07 3.10119e-08)
(0.000809183 2.96797e-07 3.92007e-07)
(0.000807521 2.13004e-07 2.65493e-08)
(0.00080637 3.38599e-08 6.02779e-08)
(0.000804579 -1.68263e-07 3.75692e-08)
(0.000802868 1.35039e-07 3.56558e-07)
(0.000801551 3.72148e-08 5.43183e-08)
(0.00080008 8.54945e-08 6.58668e-08)
(0.000798545 -6.19081e-08 5.0858e-08)
(0.000797165 -1.50086e-07 -2.12817e-08)
(0.000795205 -3.35259e-07 6.14866e-08)
(0.000793817 -3.38481e-07 1.23889e-07)
(0.000792989 -1.81078e-07 4.8556e-08)
(0.000791423 -8.45686e-08 3.70751e-08)
(0.000789857 -3.57745e-08 3.68157e-07)
(0.000788263 -8.64198e-08 -2.67716e-09)
(0.000786525 -1.38177e-07 6.53795e-08)
(0.000785125 -1.43481e-07 6.69321e-08)
(0.000783884 -2.26371e-07 4.77828e-08)
(0.000782454 -4.52513e-07 -3.5284e-08)
(0.00078104 -3.52459e-07 1.27773e-08)
(0.000779476 -2.08247e-07 9.22217e-08)
(0.000777726 1.02351e-07 9.516e-08)
(-0.0144351 0.00293961 0.00123279)
(-0.0415569 -0.00886728 -0.0079398)
(-0.000603966 0.00844194 -0.00116668)
(-0.000303888 0.0029713 -0.000139536)
(-0.00282994 -0.00326836 0.000162805)
(0.0015829 -0.00265093 0.00035652)
(0.00189149 -0.00043937 6.11172e-06)
(0.00101002 3.4168e-05 6.24876e-06)
(0.00082489 4.59891e-05 -2.70115e-06)
(0.000820555 2.42463e-05 7.59891e-08)
(0.000826561 1.61249e-05 1.15016e-07)
(0.000828157 9.90207e-06 6.33588e-08)
(0.000829231 6.2768e-06 4.5834e-08)
(0.00082902 3.85773e-06 5.05282e-08)
(0.000828634 2.43755e-06 6.91288e-08)
(0.000827829 1.46041e-06 5.96584e-08)
(0.000826567 9.43313e-07 5.32607e-08)
(0.000825386 7.41112e-07 6.97598e-08)
(0.000824456 4.54236e-07 3.1813e-08)
(0.000822677 6.42829e-07 1.17816e-07)
(0.000821076 4.38622e-07 -3.10269e-08)
(0.000819761 3.62465e-07 9.76397e-08)
(0.000818169 3.74583e-07 7.33336e-08)
(0.000816754 1.82263e-07 1.42291e-08)
(0.00081518 1.6406e-07 6.4104e-08)
(0.000813746 1.14536e-07 6.46389e-08)
(0.000812285 -2.20366e-08 3.84356e-08)
(0.000810756 -1.41255e-07 1.82759e-08)
(0.000809482 -1.4935e-07 7.32259e-08)
(0.000807817 -2.34009e-07 2.1044e-08)
(0.000805719 -3.79651e-07 -7.53144e-09)
(0.000804462 -2.99033e-07 1.05946e-07)
(0.000803197 -2.32311e-07 1.82467e-08)
(0.000801533 -1.45786e-07 5.53202e-08)
(0.000800007 -1.85828e-07 1.22095e-08)
(0.000798441 -7.75248e-08 4.13143e-08)
(0.000796857 -6.60122e-08 9.9665e-09)
(0.000795632 -1.09408e-07 4.97805e-08)
(0.000794332 2.91208e-07 4.15883e-08)
(0.000792698 1.1393e-07 5.83359e-08)
(0.000791174 1.10469e-08 3.44746e-08)
(0.00078971 -5.46376e-08 3.41411e-08)
(0.000788234 -1.31687e-07 4.40477e-08)
(0.000786681 -1.61776e-07 6.49737e-08)
(0.0007851 -1.11198e-07 4.06788e-08)
(0.00078357 -2.04641e-07 4.81873e-08)
(0.000782193 -4.92978e-07 -3.3048e-07)
(0.000781013 -5.37749e-07 6.00333e-08)
(0.000779842 -4.87885e-07 9.78646e-08)
(0.000778256 -2.08653e-07 1.82827e-07)
(-0.00708866 0.00192322 0.000945136)
(-0.0187744 -0.000791754 -0.000718173)
(0.0118779 0.00543711 -0.00144076)
(0.00779054 -0.00733043 0.000389216)
(0.00735051 -0.0108239 0.000251108)
(-0.00134025 0.00249655 0.000126036)
(0.00136859 -8.78977e-05 -3.44218e-07)
(0.000495239 0.000166409 3.62014e-05)
(0.000837926 3.08757e-05 -1.80504e-06)
(0.000799543 1.27667e-05 -3.41176e-07)
(0.000818976 8.03973e-06 1.31713e-07)
(0.000822567 4.55819e-06 -3.17257e-08)
(0.000825973 2.5727e-06 5.78001e-08)
(0.000827368 1.51285e-06 5.30137e-08)
(0.000827491 7.96326e-07 4.79437e-08)
(0.000826958 5.69053e-07 5.48574e-08)
(0.000826392 4.80789e-07 5.04536e-08)
(0.000825111 4.18594e-07 3.45285e-08)
(0.000823855 3.51414e-07 4.38143e-08)
(0.000822753 -2.27036e-08 4.72401e-08)
(0.000821111 1.27194e-07 4.19607e-08)
(0.000819658 -9.92335e-09 4.56638e-08)
(0.000818183 1.67502e-07 3.60221e-08)
(0.000816635 6.37565e-08 5.0038e-08)
(0.000815187 1.31953e-07 4.54393e-09)
(0.000813574 1.38967e-07 1.80327e-07)
(0.000811998 -6.35447e-08 5.09835e-08)
(0.000810818 -9.98934e-08 6.59894e-08)
(0.000809069 -4.32907e-07 2.14463e-08)
(0.000807236 -6.44305e-07 4.64476e-08)
(0.000806292 -3.17978e-07 1.41564e-07)
(0.000804767 -7.84769e-08 6.27387e-08)
(0.000803062 -1.20201e-07 4.70719e-08)
(0.000801611 -1.07079e-07 5.31276e-08)
(0.000800167 -9.52797e-08 1.31182e-07)
(0.000798696 7.01862e-09 6.16194e-08)
(0.000797125 1.32917e-07 4.98128e-08)
(0.000795652 3.31761e-07 9.29489e-08)
(0.000794096 1.94796e-07 5.38947e-08)
(0.000792638 2.73619e-07 7.19992e-09)
(0.000791212 1.68897e-07 4.47779e-08)
(0.000789679 1.86729e-07 2.64236e-09)
(0.000788131 6.98039e-08 5.71016e-08)
(0.000786551 1.85663e-08 -8.33785e-08)
(0.000785073 2.41091e-08 1.32714e-08)
(0.00078341 4.76899e-08 5.01223e-08)
(0.000782041 3.34899e-09 1.51507e-08)
(0.000781052 -2.89396e-07 7.1926e-08)
(0.000779897 -2.18409e-07 2.6477e-08)
(0.000778595 -2.83385e-07 8.61316e-08)
(0.00245881 -0.00164761 -0.000296129)
(0.00601125 0.00331537 0.00039608)
(0.000173886 -0.0167993 0.000247022)
(0.000823987 8.90727e-05 0.00064975)
(-0.00229213 0.00235623 8.3225e-05)
(-0.00505805 -0.000924314 -0.000212934)
(0.000645301 8.64107e-05 -3.6114e-06)
(0.000355949 2.01309e-05 1.36144e-05)
(0.000823437 -6.08737e-06 -1.56946e-06)
(0.000792201 -6.88688e-06 -3.91306e-07)
(0.000816235 -5.01093e-06 1.48582e-07)
(0.000821286 -3.53805e-06 3.98643e-08)
(0.000825403 -2.36432e-06 5.91599e-08)
(0.000826788 -1.55859e-06 5.53371e-08)
(0.000827448 -1.05763e-06 5.9566e-08)
(0.00082743 -6.23135e-07 5.34645e-08)
(0.000826375 -6.0253e-07 1.06811e-07)
(0.000825221 -5.10988e-07 5.77537e-08)
(0.000823902 -2.12206e-07 9.41637e-08)
(0.000822396 -1.6533e-07 3.05688e-08)
(0.000821092 -1.9274e-07 5.09535e-08)
(0.000819811 -1.18323e-07 4.27544e-08)
(0.000818261 -3.26098e-07 3.34793e-08)
(0.000816709 -2.03243e-07 4.76284e-08)
(0.000815273 -3.81036e-07 6.39682e-08)
(0.000813501 -3.34034e-07 8.80983e-09)
(0.000811987 -1.12586e-07 1.64147e-08)
(0.000810297 -8.40873e-08 7.13341e-08)
(0.000808807 -2.83385e-07 3.55334e-08)
(0.000807966 1.75133e-07 5.04659e-08)
(0.00080643 2.38528e-07 7.61694e-08)
(0.000804712 6.22599e-08 3.38282e-08)
(0.000803162 1.98507e-07 4.56814e-08)
(0.000801566 7.1973e-08 4.93849e-08)
(0.00080015 8.76954e-08 4.52272e-08)
(0.000798726 -6.4273e-08 4.21479e-08)
(0.000797263 -2.44483e-07 5.96953e-08)
(0.000795709 -1.35512e-07 1.05827e-08)
(0.000794258 1.09682e-07 4.20535e-08)
(0.000792664 2.18327e-07 6.0474e-08)
(0.000791064 6.17349e-08 2.65432e-08)
(0.000789585 1.39313e-07 4.98347e-08)
(0.000788024 2.15613e-07 3.84326e-08)
(0.000786624 1.46878e-07 3.25311e-08)
(0.000785136 1.76955e-07 4.48231e-08)
(0.000783544 1.9939e-07 4.66158e-08)
(0.000781773 5.11701e-07 6.01012e-08)
(0.000780737 6.66415e-07 7.15255e-08)
(0.000779858 2.63568e-07 -1.10702e-08)
(0.000778882 5.9711e-09 9.91375e-08)
(0.00813852 0.00610683 -0.000261279)
(0.00399947 0.00140478 0.000525071)
(0.00134784 -0.00648095 -0.0002268)
(0.00126438 -6.54537e-05 0.000159865)
(0.00453103 0.017895 0.000621095)
(0.00478158 -0.00272303 0.000181251)
(0.000559033 -0.000686055 7.85243e-05)
(0.00039938 -2.31527e-05 2.01873e-07)
(0.000839322 -5.67928e-05 -1.23392e-06)
(0.000800746 -2.97842e-05 -4.09664e-07)
(0.000823186 -1.8833e-05 1.79659e-07)
(0.000825892 -1.12519e-05 4.69808e-08)
(0.000828459 -6.93793e-06 6.3413e-08)
(0.00082901 -4.31172e-06 5.70273e-08)
(0.000828666 -2.51913e-06 5.0597e-08)
(0.000827532 -1.67197e-06 1.12725e-07)
(0.000826536 -1.09586e-06 9.2942e-08)
(0.000825602 -6.89224e-07 2.67387e-08)
(0.000824289 -4.97098e-07 1.91015e-08)
(0.000822779 -1.4778e-07 8.50404e-08)
(0.000821172 -8.83727e-08 4.57963e-08)
(0.000819494 -1.95698e-07 8.77393e-08)
(0.000818079 -2.90274e-07 5.9093e-09)
(0.00081657 -3.05032e-07 5.36178e-08)
(0.000815027 -3.50508e-07 1.67881e-08)
(0.000813913 -4.37084e-07 -7.64685e-08)
(0.000812313 -2.45451e-07 2.162e-08)
(0.000810607 -1.78163e-07 3.74578e-07)
(0.000809395 4.04704e-08 9.81826e-08)
(0.000807889 2.44331e-07 6.79873e-08)
(0.00080615 1.96347e-07 2.63665e-07)
(0.000804715 1.11422e-07 6.39505e-08)
(0.000803074 -2.06259e-08 -2.92894e-07)
(0.000801472 -7.3932e-08 -2.30137e-08)
(0.000799997 -1.13391e-07 2.99386e-08)
(0.000798281 -1.81965e-07 5.82538e-08)
(0.000797038 -3.13926e-08 6.83058e-08)
(0.000796095 -1.91224e-07 5.65281e-08)
(0.000794537 -3.78726e-07 8.7017e-08)
(0.000792577 -5.42182e-07 3.34592e-08)
(0.000791113 -2.74716e-07 -2.27034e-09)
(0.000789871 -2.95915e-07 6.13097e-08)
(0.000788139 -5.81339e-08 2.18082e-08)
(0.000786502 -8.59309e-08 4.71623e-08)
(0.000785138 1.89448e-08 4.98057e-08)
(0.000783826 1.62682e-07 -6.59927e-09)
(0.000782622 3.8681e-07 3.49312e-08)
(0.000780738 9.58918e-07 2.58356e-08)
(0.00077907 6.34716e-07 -9.58994e-08)
(0.000778255 3.1645e-07 9.06677e-08)
(0.00318705 -0.00263462 4.48658e-06)
(-0.00560339 -0.00954546 0.000295089)
(-0.00602153 -0.00704272 0.000162846)
(-0.00353228 -0.00197515 -0.000705669)
(0.0150649 0.0113607 0.00157198)
(-0.000292115 -0.000293802 -4.58645e-05)
(0.00106004 -0.000262184 -3.79995e-06)
(0.00082622 -0.000109397 -2.9215e-06)
(0.00085721 -7.89005e-05 4.19427e-07)
(0.00084 -4.00166e-05 5.90951e-08)
(0.000839523 -2.41874e-05 1.43954e-07)
(0.000836229 -1.4304e-05 5.70518e-08)
(0.000834122 -8.70271e-06 7.16962e-08)
(0.000832337 -5.15693e-06 7.26147e-08)
(0.000830763 -3.2308e-06 5.86852e-08)
(0.000829219 -2.03734e-06 7.82942e-08)
(0.00082761 -1.08867e-06 5.14849e-08)
(0.000825974 -7.21322e-07 6.36259e-08)
(0.000824582 -5.98894e-07 3.88803e-08)
(0.000822908 -6.3738e-07 4.53971e-08)
(0.000821033 -4.81282e-07 5.48317e-08)
(0.000819561 -3.07103e-07 5.10875e-08)
(0.000818127 -1.02512e-07 5.99326e-08)
(0.000816637 -1.58121e-07 4.84239e-08)
(0.000815112 -2.35019e-08 6.58136e-08)
(0.000813636 -3.03194e-08 3.66689e-09)
(0.000812314 -1.80223e-07 8.91923e-08)
(0.000810656 1.79142e-08 4.81672e-08)
(0.000809335 1.93828e-07 -1.14681e-07)
(0.000808159 -1.79645e-07 4.68782e-08)
(0.000806262 -2.39501e-07 9.1737e-08)
(0.00080444 -2.47802e-07 5.03699e-08)
(0.000802931 -4.63376e-07 1.08762e-08)
(0.000801452 -3.57647e-07 1.61686e-07)
(0.000800017 -1.30811e-07 4.70944e-08)
(0.00079883 4.42397e-08 2.28974e-08)
(0.000797253 2.01332e-07 4.61205e-08)
(0.000795276 -1.34015e-08 4.7435e-08)
(0.000793822 -3.74605e-07 7.8754e-09)
(0.000792797 -5.32581e-07 6.44376e-08)
(0.000791375 -2.76452e-07 6.2368e-08)
(0.000789858 -2.86574e-07 1.62459e-08)
(0.000788288 -3.34529e-07 5.78344e-08)
(0.000786721 -2.17594e-08 1.11451e-07)
(0.000785447 -4.80382e-08 4.12474e-08)
(0.000784002 1.00151e-07 4.62335e-08)
(0.000782764 -7.92646e-09 1.09267e-08)
(0.000781041 -5.23074e-08 2.83532e-08)
(0.000779042 3.20642e-07 -4.59537e-09)
(0.000777697 2.22205e-07 7.39237e-08)
(-0.00838997 -0.000600946 0.000212401)
(-0.00816139 0.00637031 -0.00269821)
(0.00379218 -0.000785662 0.00514386)
(0.00310122 0.00657418 0.00115439)
(0.00318545 -0.00329884 -0.000149578)
(0.00959818 -0.002773 0.000125691)
(0.00178419 -0.000348633 0.000102559)
(0.00156346 -0.000124251 3.74525e-07)
(0.00150188 -4.07601e-05 3.75925e-07)
(0.00144295 -3.64181e-05 3.79558e-07)
(0.0014221 -2.14497e-05 4.01312e-07)
(0.00140653 -1.38323e-05 3.85242e-07)
(0.00139837 -8.30532e-06 2.83043e-07)
(0.00139201 -5.11298e-06 3.6879e-07)
(0.00138675 -3.14899e-06 3.47973e-07)
(0.00138295 -1.79676e-06 2.68693e-07)
(0.00137964 -1.47956e-06 3.46387e-07)
(0.00137644 -1.03241e-06 3.1609e-07)
(0.00137345 -7.61395e-07 4.14122e-07)
(0.00137099 -7.46129e-07 3.87173e-07)
(0.00136874 -5.02522e-07 3.5239e-07)
(0.00136601 -1.28507e-07 3.53387e-07)
(0.00136317 -2.54879e-07 3.16899e-07)
(0.00136057 -1.14425e-07 2.96486e-07)
(0.0013581 2.33659e-07 3.46094e-07)
(0.00135559 5.69463e-07 3.30265e-07)
(0.00135333 4.87123e-07 3.31283e-07)
(0.00135121 2.38366e-07 3.4628e-07)
(0.001348 5.09338e-07 4.42612e-07)
(0.00134495 -2.21978e-07 6.7564e-07)
(0.00134277 -1.04935e-06 2.44399e-07)
(0.00134001 -8.71116e-07 1.63821e-07)
(0.00133754 -6.48353e-07 4.31134e-07)
(0.00133589 -2.62682e-07 4.1972e-07)
(0.00133361 2.54636e-07 3.18475e-07)
(0.00133057 2.69518e-07 3.19011e-07)
(0.00132762 -5.46416e-08 3.93166e-07)
(0.00132488 2.66844e-07 2.85913e-07)
(0.00132254 7.10841e-07 1.15606e-07)
(0.00132063 7.42398e-07 3.54664e-07)
(0.00131836 1.63371e-07 2.92036e-07)
(0.00131564 3.45892e-08 2.31068e-07)
(0.00131357 -5.64886e-07 4.15269e-07)
(0.00131084 -3.44585e-07 7.17829e-07)
(0.00130816 -2.46353e-07 3.7889e-07)
(0.00130581 -4.09171e-07 1.59338e-07)
(0.00130339 -4.09037e-07 3.31207e-07)
(0.0013013 -7.35865e-07 4.61439e-07)
(0.00129836 -4.99753e-07 2.17946e-07)
(0.00129532 -3.89346e-07 3.77043e-07)
(-0.00320219 -0.0101106 0.000853172)
(0.000719449 0.00975735 -0.000518506)
(0.0148648 -0.0256635 -0.000887677)
(0.00461113 -0.00161333 -0.000198643)
(0.0096617 0.00490945 -0.000944073)
(-0.00316374 -0.0119721 -0.00128638)
(0.000886412 -7.17904e-05 -8.25348e-06)
(0.00154469 -5.48153e-05 2.88027e-07)
(0.0015615 1.52794e-05 4.47331e-07)
(0.00142335 -3.5624e-06 3.53991e-07)
(0.00142668 -2.7511e-06 3.54909e-07)
(0.00140952 -2.87611e-06 3.50901e-07)
(0.00140045 -2.04342e-06 3.76562e-07)
(0.00139307 -1.6094e-06 3.46905e-07)
(0.00138825 -1.02821e-06 3.47292e-07)
(0.0013836 -6.98591e-07 4.88871e-07)
(0.00137976 2.17174e-08 3.41494e-07)
(0.00137701 4.01708e-07 4.11386e-07)
(0.00137414 7.36777e-07 3.16508e-07)
(0.00137126 4.73896e-07 3.1092e-07)
(0.00136856 3.84895e-07 3.86645e-07)
(0.00136566 1.90541e-07 3.72203e-07)
(0.00136302 3.71395e-07 3.0942e-07)
(0.00136113 4.87274e-07 3.01626e-07)
(0.00135875 2.83761e-07 1.4457e-07)
(0.00135576 1.7585e-07 3.45081e-07)
(0.0013529 1.59722e-07 4.90241e-07)
(0.00135056 -2.17082e-07 3.37945e-07)
(0.00134774 -9.74179e-07 2.48371e-07)
(0.00134438 -7.43631e-07 1.03814e-07)
(0.00134234 -6.51795e-07 3.717e-07)
(0.00134057 -3.59734e-07 3.23255e-07)
(0.00133828 6.69194e-07 6.32767e-07)
(0.00133622 1.01925e-06 5.13059e-07)
(0.00133338 2.07297e-07 3.4523e-07)
(0.00133035 1.29683e-07 3.90822e-07)
(0.00132812 2.37843e-07 3.22503e-07)
(0.00132581 3.9576e-07 3.78971e-07)
(0.00132304 7.05711e-07 3.19253e-07)
(0.00132003 7.89996e-07 3.25061e-07)
(0.00131739 2.95752e-07 1.76434e-07)
(0.00131484 1.24647e-08 3.72428e-07)
(0.00131267 -3.61857e-07 2.71001e-07)
(0.00131099 -6.94262e-07 2.91832e-07)
(0.00130841 -2.26287e-07 3.63498e-07)
(0.0013058 -2.41351e-07 3.46793e-07)
(0.00130351 1.365e-07 4.53484e-07)
(0.00130105 -2.06603e-07 3.07705e-07)
(0.00129833 -5.7513e-07 3.68718e-07)
(0.00129657 -4.12061e-07 2.2461e-07)
(0.000316706 -0.0158586 0.000419955)
(-0.00810954 0.00312854 -0.00136853)
(-0.000840111 -0.0209876 0.00725976)
(-0.00612257 -0.00572154 -0.00405166)
(0.00967882 0.00580919 -0.00284669)
(0.00416989 0.0018144 0.00358744)
(0.000874788 -0.000129169 -2.87625e-05)
(0.00154283 1.96332e-05 3.06245e-06)
(0.00153861 2.45155e-05 -3.77483e-07)
(0.00142017 1.79302e-05 3.50524e-07)
(0.00142295 1.05679e-05 3.5485e-07)
(0.00140741 6.73455e-06 3.79196e-07)
(0.00139996 3.74181e-06 3.40142e-07)
(0.00139329 2.37533e-06 3.47647e-07)
(0.00138789 1.41618e-06 3.46408e-07)
(0.00138426 7.33452e-07 3.39734e-07)
(0.00138101 5.4373e-07 3.44826e-07)
(0.00137733 3.50631e-07 2.74059e-07)
(0.00137354 5.61201e-08 3.81319e-07)
(0.00137055 1.38781e-07 3.97785e-07)
(0.00136838 1.54837e-07 4.19226e-07)
(0.00136599 1.90999e-07 3.39993e-07)
(0.00136354 5.32548e-07 5.00022e-07)
(0.00136045 4.67039e-07 -9.35487e-08)
(0.0013577 1.49275e-07 3.46648e-07)
(0.00135543 4.64673e-08 3.81916e-07)
(0.00135284 -1.07728e-07 3.34179e-07)
(0.0013498 -6.38766e-08 3.26934e-07)
(0.00134735 -2.95556e-07 2.59646e-07)
(0.00134536 5.51604e-07 2.98002e-07)
(0.00134326 1.19255e-06 3.70743e-07)
(0.00134166 1.09526e-06 3.24647e-07)
(0.00133926 6.96531e-07 8.34434e-07)
(0.00133531 5.65886e-07 4.88257e-07)
(0.00133249 1.84221e-08 3.7709e-07)
(0.00133061 1.77589e-07 3.44567e-07)
(0.00132795 2.27519e-07 2.92357e-07)
(0.00132546 1.14996e-07 3.70655e-07)
(0.00132303 1.83933e-07 3.43428e-07)
(0.00132011 -3.25621e-08 4.28184e-07)
(0.00131739 1.20594e-07 2.93336e-07)
(0.00131482 2.04093e-07 3.78066e-07)
(0.00131269 7.44673e-07 5.6766e-07)
(0.00131101 7.51263e-07 4.77084e-07)
(0.00130873 4.98715e-07 3.35552e-07)
(0.00130626 4.91929e-07 3.23545e-07)
(0.00130343 5.81054e-07 4.28664e-07)
(0.00130041 3.31947e-07 2.0387e-07)
(0.00129812 1.62178e-07 3.00858e-07)
(0.00129655 1.47247e-07 3.10089e-07)
(-0.00318187 0.00536242 -0.000387872)
(0.00763759 0.00204585 0.000664084)
(0.0147624 -0.00395061 0.00202347)
(-0.0035573 -0.013584 0.00672035)
(-0.0254415 -0.0310509 0.1116)
(0.0142844 0.00180778 0.00249034)
(0.00126683 -0.00172921 5.73796e-05)
(0.0011414 4.12919e-05 4.65038e-05)
(0.00150798 3.94081e-05 3.03986e-07)
(0.00140627 3.61655e-05 2.78511e-07)
(0.00141263 2.14653e-05 3.51384e-07)
(0.00140096 1.43243e-05 2.7896e-07)
(0.00139498 8.88848e-06 3.48141e-07)
(0.00139015 5.64684e-06 3.46924e-07)
(0.00138619 3.68041e-06 3.45477e-07)
(0.0013825 2.42246e-06 3.44539e-07)
(0.00137928 1.05796e-06 3.45148e-07)
(0.0013764 3.19914e-07 3.6996e-07)
(0.00137387 -2.17069e-07 3.38937e-07)
(0.00137138 -2.65895e-07 3.11363e-07)
(0.00136862 -3.85261e-08 3.73142e-07)
(0.00136613 -1.0772e-07 3.43201e-07)
(0.00136336 -2.52118e-07 2.995e-07)
(0.00136064 -1.54518e-07 3.91451e-07)
(0.00135822 1.23447e-07 2.81925e-07)
(0.00135544 2.39942e-07 4.43571e-07)
(0.00135276 4.09299e-07 4.07753e-07)
(0.00135032 6.38075e-07 4.43446e-07)
(0.00134851 1.44305e-06 3.8626e-07)
(0.00134624 1.18369e-06 4.86281e-07)
(0.00134301 1.33067e-06 3.15605e-07)
(0.00133994 1.25462e-06 1.41576e-07)
(0.00133761 3.29547e-07 3.31455e-07)
(0.00133537 -1.84776e-07 3.27978e-07)
(0.0013329 2.37067e-07 3.3896e-07)
(0.00133061 5.47772e-08 3.17679e-07)
(0.00132805 -5.42298e-08 4.80832e-07)
(0.00132575 3.62819e-08 2.75826e-07)
(0.00132286 -6.46102e-07 1.89159e-07)
(0.00131996 -4.80282e-07 1.08259e-07)
(0.00131769 3.23372e-08 3.26532e-07)
(0.00131562 3.91618e-07 3.89015e-07)
(0.00131335 8.27959e-07 5.317e-07)
(0.00131067 7.26151e-07 2.34371e-07)
(0.00130807 1.98732e-07 2.42293e-07)
(0.0013059 5.83803e-08 3.2572e-07)
(0.0013033 -1.10977e-07 3.91516e-07)
(0.00130052 1.1995e-07 2.20464e-07)
(0.00129809 4.25416e-07 3.26443e-07)
(0.00129619 3.89462e-07 2.3772e-07)
(0.00502046 -0.00619313 -3.96636e-05)
(0.00431718 -0.00855049 0.00190954)
(0.00113493 0.00486038 0.00060262)
(-0.0144228 0.0134705 -0.00323955)
(0.00554057 -0.00897088 0.0014711)
(-0.00611816 -0.0087796 -0.000375512)
(-0.000945578 -0.00287582 -2.62064e-05)
(0.00124704 0.000425298 3.99952e-05)
(0.00140997 5.3932e-05 8.49348e-07)
(0.00139698 4.25099e-05 4.31127e-07)
(0.00139555 2.61354e-05 3.68533e-07)
(0.00139163 1.64835e-05 7.14865e-07)
(0.00138907 1.07278e-05 5.67837e-07)
(0.00138675 6.71983e-06 3.47206e-07)
(0.00138384 4.14453e-06 3.69068e-07)
(0.00138097 2.58381e-06 3.62873e-07)
(0.00137838 1.77796e-06 3.44201e-07)
(0.00137574 1.01568e-06 3.42125e-07)
(0.0013728 8.58675e-07 3.13019e-07)
(0.00137077 8.41314e-07 2.16431e-07)
(0.00136858 2.40777e-07 3.76311e-07)
(0.00136572 3.22908e-07 6.6715e-07)
(0.00136348 7.46508e-09 4.00098e-07)
(0.00136092 1.01025e-07 3.62324e-07)
(0.0013582 4.31616e-08 2.60088e-07)
(0.00135579 -6.18173e-08 3.48491e-07)
(0.00135333 2.17338e-07 3.91754e-07)
(0.00135108 3.69992e-07 3.27277e-07)
(0.00134802 5.52269e-07 7.96263e-07)
(0.00134521 4.15926e-07 3.09485e-07)
(0.00134333 1.13237e-07 3.45546e-07)
(0.0013404 -2.51159e-07 3.27556e-07)
(0.00133746 2.71672e-07 7.03501e-07)
(0.00133519 9.24575e-08 3.40168e-07)
(0.00133279 1.66111e-07 3.51418e-07)
(0.00133024 -9.31356e-08 3.3504e-07)
(0.00132792 -2.84474e-07 2.51685e-07)
(0.00132472 -5.53219e-07 3.2782e-07)
(0.00132239 -5.71172e-07 4.92626e-07)
(0.00132096 -3.06814e-07 2.40009e-07)
(0.00131848 -1.18644e-07 3.32815e-07)
(0.00131581 -2.67954e-08 7.13979e-07)
(0.0013131 -1.51475e-07 2.96829e-07)
(0.00131022 -2.52515e-07 3.27351e-07)
(0.00130789 -3.26608e-07 3.37365e-07)
(0.00130587 -4.24602e-07 3.25389e-07)
(0.00130351 -8.35809e-07 1.32128e-07)
(0.00130108 -7.08859e-07 8.00366e-08)
(0.00129844 -3.643e-07 4.10323e-07)
(0.00129553 1.7357e-07 4.36642e-07)
(0.000538043 -0.000317253 0.00335196)
(0.014657 -0.00493366 -0.00948665)
(-0.00171845 -0.00492328 0.00159474)
(-0.0110857 0.0130125 0.000222362)
(0.00485813 -0.000351453 0.00173692)
(0.0116363 -0.00218938 -0.00187276)
(0.00452378 0.000767189 3.51785e-06)
(0.000756862 0.000106764 -1.82548e-05)
(0.00138024 7.08342e-05 7.43231e-07)
(0.00137174 3.65958e-05 3.87911e-07)
(0.00137996 2.4368e-05 3.5875e-07)
(0.00138161 1.48442e-05 3.42341e-07)
(0.00138272 9.46262e-06 3.37669e-07)
(0.00138188 5.79267e-06 3.44233e-07)
(0.001381 3.64144e-06 3.53473e-07)
(0.00137953 2.1592e-06 3.50353e-07)
(0.00137731 1.40614e-06 3.44068e-07)
(0.00137525 1.12156e-06 3.84121e-07)
(0.00137365 7.00102e-07 3.20515e-07)
(0.00137061 1.0337e-06 4.86867e-07)
(0.00136797 7.57539e-07 2.39948e-07)
(0.00136584 6.06966e-07 3.69631e-07)