/*--------------------------------*- C++ -*----------------------------------*\
| =========                 |                                                 |
| \\      /  F ield         | OpenFOAM: The Open Source CFD Toolbox           |
|  \\    /   O peration     | Version:  5.0                                   |
|   \\  /    A nd           | Web:      www.OpenFOAM.org                      |
|    \\/     M anipulation  |                                                 |
\*---------------------------------------------------------------------------*/
FoamFile
{
    version     2.0;
    format      ascii;
    class       surfaceVectorField;
    location    "4.2";
    object      Uf;
}
// * * * * * * * * * * * * * * * * * * * * * * * * * * * * * * * * * * * * * //

dimensions      [0 1 -1 0 0 0 0];

internalField   nonuniform List<vector> 
23584
(
(0.00449164 -0.00119984 0.000170195)
(0.000479129 0.00188639 -0.000266835)
(-0.00448688 0.00137432 -0.000199151)
(0.00346881 -0.000950487 -0.000942022)
(0.00590722 0.015827 -0.000770777)
(-0.00665995 0.0114679 -0.000207822)
(0.00691412 0.000984062 0.000298135)
(0.00720421 -0.00501901 -0.000347741)
(0.00966484 0.00943592 -0.000135288)
(0.00419216 0.00402927 0.000540772)
(0.000160314 0.000728522 0.000358165)
(-0.00362273 0.00306238 0.00157988)
(-0.0123136 0.00774238 0.000201659)
(-0.000922247 -0.00127536 0.000835138)
(0.00375209 -0.00924483 0.000304809)
(0.0102363 -0.0101113 6.986e-05)
(0.00150827 -0.00604092 0.000514989)
(-0.00158943 -0.00149334 0.00239409)
(0.0045998 -0.00420835 -0.000146277)
(0.00632855 -0.00581669 -0.00109677)
(0.00103668 -0.00834971 -0.000597266)
(-6.29195e-05 -0.00376645 -0.00027262)
(-0.0024223 -0.00403655 -0.00087829)
(-0.00513711 -0.011272 -5.78946e-05)
(0.00555831 -0.00191896 -0.00019172)
(0.0016261 0.00154718 4.3877e-05)
(0.00302259 0.00332819 0.000146571)
(0.00439683 0.00107817 4.66849e-05)
(0.00167683 7.10496e-05 7.60251e-05)
(0.000543295 -6.4965e-05 5.50668e-05)
(0.00066415 -5.67412e-05 0.000104822)
(0.00050278 -3.38263e-05 3.44788e-05)
(0.000872063 -7.3558e-06 -1.79029e-06)
(0.000601303 -8.06209e-06 -2.25058e-06)
(0.00117489 -3.15575e-05 -1.63026e-06)
(0.000628253 -2.40778e-05 -5.41725e-06)
(0.000612559 -2.79282e-05 -3.59369e-06)
(0.0010919 -5.9683e-05 -3.15725e-06)
(0.00106945 -6.43376e-05 1.14586e-06)
(0.000580744 -1.99266e-05 -4.8654e-06)
(0.00102363 -1.53309e-05 -1.7966e-06)
(0.000972862 -2.95348e-05 -5.61269e-06)
(0.000848078 5.54595e-07 5.19804e-08)
(0.000873592 1.48712e-05 -4.98065e-07)
(0.00115035 4.38589e-06 1.53438e-07)
(0.000840904 -3.30453e-06 3.66328e-08)
(0.000833395 -4.82329e-07 -2.46192e-07)
(0.00112497 -7.11898e-06 1.6834e-07)
(0.000835346 -2.26292e-06 4.7699e-08)
(0.000837391 -3.79709e-07 1.20822e-07)
(0.00111869 -4.13789e-06 1.86795e-07)
(0.000832499 -1.67969e-06 1.54454e-08)
(0.00083313 -1.08103e-06 3.24354e-08)
(0.00111223 -3.35906e-06 1.78622e-07)
(0.000830724 -9.16182e-07 3.26858e-08)
(0.000831396 -1.23814e-06 1.79519e-08)
(0.0011095 -2.01137e-06 1.94861e-07)
(0.000827919 -5.06123e-07 5.77319e-08)
(0.000829116 -8.76207e-07 5.6927e-08)
(0.00110629 -1.0019e-06 1.63833e-07)
(0.000826136 -4.07831e-07 2.42211e-08)
(0.000827072 -5.86182e-07 4.84331e-08)
(0.00110307 -7.08511e-07 1.87608e-07)
(0.000824328 -3.56822e-07 2.6638e-08)
(0.000825254 6.16945e-07 2.34833e-08)
(0.00110072 -5.70334e-07 1.61512e-07)
(0.00082295 -2.22464e-07 1.71409e-08)
(0.000823604 -3.15864e-07 5.45341e-08)
(0.00109858 -4.86911e-07 1.81745e-07)
(0.000820984 -1.13314e-07 2.42371e-08)
(0.000822048 -3.90081e-07 2.93345e-08)
(0.00109635 -1.93715e-07 1.77103e-07)
(0.000819395 -1.17279e-07 1.28026e-07)
(0.000820356 -3.91212e-07 6.70311e-08)
(0.00109393 -1.77834e-07 1.81655e-07)
(0.000817858 -1.48006e-07 1.22529e-07)
(0.000818746 -9.52746e-08 1.06669e-07)
(0.00109187 -1.93219e-07 1.74713e-07)
(0.000816518 -1.21973e-07 6.02501e-08)
(0.000817189 5.73939e-08 3.94072e-08)
(0.00109002 -2.24647e-07 1.25331e-07)
(0.000814896 -1.73987e-07 4.27079e-08)
(0.000815514 9.28835e-08 4.0814e-08)
(0.00108798 -5.91387e-08 1.77387e-07)
(0.000813287 -1.84477e-07 3.37411e-08)
(0.000814019 -1.25782e-08 9.33954e-08)
(0.00108577 -3.18287e-07 1.87579e-07)
(0.000811803 -6.51295e-09 4.88882e-08)
(0.000812735 -2.26375e-07 4.95617e-08)
(0.00108375 -9.59459e-08 1.84527e-07)
(0.000810388 1.99093e-07 5.42024e-08)
(0.000811229 1.82784e-07 5.53961e-08)
(0.00108185 1.49342e-07 1.76714e-07)
(0.000808587 2.98493e-07 5.46242e-08)
(0.000809492 -8.69058e-07 8.08127e-08)
(0.00107965 4.69415e-07 1.54464e-07)
(0.000807201 2.38559e-07 5.12044e-08)
(0.000807863 2.50457e-07 4.7196e-08)
(0.00107753 3.93184e-07 1.57659e-07)
(0.000805732 3.20766e-07 9.72962e-08)
(0.000806581 7.96243e-08 4.86069e-08)
(0.00107582 2.62725e-07 1.82125e-07)
(0.000804001 2.15618e-07 1.00992e-07)
(0.000804771 4.79995e-07 1.49458e-07)
(0.00107351 5.66786e-07 8.81671e-08)
(0.000802631 -2.13441e-07 6.77401e-08)
(0.000802914 -2.56556e-07 6.45398e-08)
(0.00107136 -5.46667e-08 2.07211e-07)
(0.000800644 -4.61515e-07 2.15831e-08)
(0.000801515 -8.10442e-07 -3.55433e-08)
(0.00106926 -6.17759e-07 3.72913e-07)
(0.000799322 -4.85849e-07 1.78686e-08)
(0.000799999 -6.97571e-07 -1.67818e-08)
(0.00106691 -6.89905e-07 3.17331e-07)
(0.000797902 -3.26462e-07 5.74534e-08)
(0.000798692 -2.17236e-07 9.6917e-08)
(0.00106511 -6.04059e-07 1.5952e-07)
(0.00079662 -8.84051e-08 4.48803e-08)
(0.000797489 -1.75671e-09 6.78603e-08)
(0.00106349 -2.29069e-07 1.47083e-07)
(0.000795136 7.56447e-08 4.7101e-08)
(0.000795991 -1.20516e-08 4.63444e-08)
(0.00106167 5.43976e-08 1.7746e-07)
(0.000793378 1.28792e-07 4.58356e-08)
(0.000794349 1.8137e-07 4.87533e-08)
(0.0010594 2.15699e-07 1.27963e-07)
(0.000791833 1.887e-07 3.87809e-08)
(0.000792824 2.26873e-07 4.28535e-08)
(0.00105716 1.55211e-07 1.76069e-07)
(0.000790131 3.98869e-07 5.23989e-08)
(0.000791314 4.2947e-07 2.05072e-08)
(0.00105488 3.51227e-07 1.42611e-07)
(0.000789679 3.6808e-07 8.72249e-08)
(0.000789863 -1.99292e-06 8.95873e-08)
(0.00105352 7.31576e-07 2.06107e-07)
(0.000787789 1.23639e-07 6.65204e-08)
(0.000788402 3.47391e-07 1.16655e-07)
(0.00105208 3.0724e-07 1.812e-07)
(0.000786221 5.53455e-08 5.06098e-08)
(0.000786875 1.13259e-07 4.37809e-08)
(0.00104969 7.93393e-08 1.768e-07)
(0.000784737 -1.20322e-07 3.32412e-08)
(0.000785271 1.28039e-07 6.52039e-08)
(0.00104754 7.95685e-08 1.53779e-07)
(0.000783765 -3.64547e-07 5.83226e-09)
(0.000783951 -2.32255e-07 2.77901e-08)
(0.00104615 -4.05948e-07 1.07961e-07)
(0.000781708 -2.89109e-07 3.42291e-08)
(0.000782715 1.96601e-06 5.58859e-08)
(0.00104401 -5.31377e-07 1.06658e-07)
(0.000780277 -1.46635e-07 5.67611e-08)
(0.000781186 -2.1989e-07 5.1745e-08)
(0.00104164 -2.09507e-07 1.88014e-07)
(0.000778765 -6.1007e-08 6.27234e-08)
(0.000779681 1.84419e-07 6.05203e-08)
(0.00103972 -2.19906e-07 1.66073e-07)
(0.000777929 -4.8302e-08 6.1873e-08)
(0.000778351 -6.64979e-07 5.87766e-08)
(0.00103805 -3.7083e-09 1.55797e-07)
(0.000776325 -2.52217e-07 5.32869e-08)
(0.000777013 1.37141e-07 1.14112e-08)
(0.00103662 -1.91729e-07 1.79305e-07)
(0.000774595 -3.59741e-07 2.26892e-08)
(0.000775412 -3.0457e-07 -1.22039e-08)
(0.00103423 -5.09909e-07 2.11258e-07)
(0.00077408 8.62291e-07 5.54794e-08)
(0.00103203 -4.31528e-07 1.15718e-07)
(3.47592e-05 0.00330994 -0.000336832)
(-0.00238278 -0.00532467 0.000164693)
(-0.000349481 -0.00528695 0.000547785)
(0.00827904 -0.00809637 2.33246e-05)
(-0.00240078 0.00486043 -0.000210545)
(0.00030553 0.00873129 -0.00218042)
(0.0048647 0.00125814 -0.000988852)
(0.00329737 0.000882116 0.000492956)
(-0.00832627 0.00891048 -0.00025449)
(-0.0122067 0.0026341 0.000367393)
(-0.00253754 -0.00198465 -0.000547819)
(0.0149451 -0.0106653 -1.53584e-05)
(0.00764647 0.00330935 -0.00118697)
(0.00164973 0.0085027 -0.004453)
(0.000558069 0.00879639 -0.00906363)
(0.0011179 0.00766532 0.0129528)
(-0.00634103 -0.00578919 0.000504406)
(0.0148133 0.00032927 0.000415404)
(0.00634077 -0.0173532 -9.20683e-05)
(0.0159783 -0.0177022 0.000387931)
(-0.0143335 0.00157958 0.000595556)
(-0.010508 -0.00596171 0.00175538)
(-0.0170911 -0.00343194 0.00075684)
(0.00711202 -0.00496506 0.000260115)
(0.00254485 0.00362361 0.000567244)
(0.00478701 -0.00162366 0.000332694)
(-0.00346716 -0.0195487 -0.000179229)
(-0.00452785 0.000644501 0.000789828)
(0.00357511 -0.00411837 -0.000108452)
(0.00313304 -0.00252799 4.75792e-05)
(0.00449759 0.00239997 -5.66645e-05)
(0.00537759 0.00161769 -5.87615e-05)
(0.00173352 0.00594704 0.00102694)
(0.00135609 -0.00283748 0.000211575)
(0.00508431 -0.00563581 0.000194706)
(-0.00496611 0.000644925 0.000179066)
(-0.00388596 -0.00379385 3.47122e-05)
(-0.00352232 -0.00303885 0.000112021)
(-0.00550003 -0.00162424 -0.000113737)
(-0.0034512 -0.00109738 8.64702e-05)
(-0.00579168 -0.00313927 -1.52261e-05)
(0.00147455 8.15497e-05 6.01032e-05)
(0.00114543 3.16801e-05 1.74262e-05)
(0.00158775 0.000438326 2.46353e-05)
(0.00131523 0.00015163 -1.20304e-05)
(0.00129192 1.36569e-05 2.89855e-05)
(0.000326341 -2.20304e-05 -2.92267e-06)
(0.000485813 -5.6864e-06 -3.64853e-06)
(0.000458394 -7.72739e-06 -1.03266e-06)
(0.000780018 -1.24979e-05 -1.69905e-06)
(0.000324303 -8.76246e-06 -2.47851e-06)
(0.00060453 -5.87841e-05 -4.35442e-06)
(0.000607575 -2.30185e-05 -2.17075e-06)
(0.000835144 6.21258e-06 -7.9632e-07)
(0.000883503 -1.1235e-06 -1.74128e-06)
(0.00118728 1.5977e-05 -1.0382e-06)
(0.000600579 5.31325e-07 -4.00497e-06)
(0.000611855 4.18533e-06 -4.72256e-06)
(0.000998141 -7.41851e-06 -4.75242e-06)
(0.00102693 3.59328e-06 -5.86314e-06)
(0.0008354 -3.81383e-08 -1.62122e-07)
(0.000825512 -1.42208e-06 -4.75677e-07)
(0.0011021 -5.77564e-08 8.60754e-08)
(0.00083407 -4.73461e-07 1.05588e-07)
(0.000836846 -1.15808e-06 1.59574e-07)
(0.00111734 -4.12353e-07 2.11714e-07)
(0.00083234 -7.27796e-07 3.49466e-08)
(0.000832814 -9.00981e-07 5.20655e-08)
(0.00111152 -1.08265e-06 1.79315e-07)
(0.000829976 -7.62607e-07 4.21804e-08)
(0.000831355 2.20468e-07 5.33982e-08)
(0.00110906 -9.90098e-07 1.47809e-07)
(0.000828098 -6.62668e-07 4.76309e-08)
(0.000829243 -5.57034e-07 4.7977e-08)
(0.00110589 -1.10053e-06 1.84669e-07)
(0.000826294 -4.69506e-07 4.77034e-08)
(0.000827316 -3.42586e-07 5.15846e-08)
(0.00110349 -6.90517e-07 1.83701e-07)
(0.000824384 -2.04809e-07 5.13694e-08)
(0.000825586 4.88071e-07 5.22023e-08)
(0.00110087 -5.74814e-07 2.1889e-07)
(0.000822852 5.47524e-08 6.67358e-08)
(0.000823929 -4.34144e-07 5.05869e-08)
(0.00109852 1.81754e-08 1.85563e-07)
(0.000821336 2.17052e-07 7.21163e-08)
(0.00082225 -5.25914e-07 7.18962e-08)
(0.00109656 1.25459e-07 1.85124e-07)
(0.000819774 2.73243e-07 4.56615e-08)
(0.000820426 -4.3766e-07 8.45048e-08)
(0.00109446 4.61839e-07 1.83347e-07)
(0.000818012 2.66473e-07 2.35696e-08)
(0.000818737 1.39831e-07 3.76248e-08)
(0.00109221 2.69799e-07 1.81626e-07)
(0.000816247 2.42576e-07 1.99706e-08)
(0.000817158 -8.2999e-09 2.94216e-08)
(0.00108993 4.33436e-07 2.02995e-07)
(0.000814463 2.45202e-07 9.14847e-08)
(0.000815516 3.27672e-07 3.22492e-08)
(0.00108749 2.03611e-07 1.84123e-07)
(0.0008136 2.98894e-07 1.0923e-07)
(0.000814084 -1.57561e-06 8.87996e-08)
(0.00108565 4.60025e-07 2.29281e-07)
(0.000812126 1.61888e-07 5.60678e-08)
(0.000812562 5.9883e-07 6.47657e-08)
(0.00108426 3.80626e-07 1.15986e-07)
(0.000810445 -2.71998e-08 8.19983e-08)
(0.000810992 1.17551e-08 5.44267e-08)
(0.00108216 1.22891e-07 2.03566e-07)
(0.000808637 -9.99559e-08 7.33952e-08)
(0.000809401 2.46446e-08 7.26979e-08)
(0.0010797 -1.09768e-07 1.4001e-07)
(0.000807208 -1.65278e-07 4.45981e-08)
(0.000807781 -5.06582e-07 4.72654e-08)
(0.00107749 -6.74499e-08 2.22636e-07)
(0.000805861 -4.94432e-07 1.00737e-07)
(0.000806171 -1.11099e-07 5.27862e-08)
(0.00107581 -3.18588e-07 1.76073e-07)
(0.000803448 -6.18361e-07 1.13033e-07)
(0.000804618 -1.31082e-06 5.37614e-08)
(0.00107326 -1.00653e-06 3.83209e-07)
(0.000801903 -4.33282e-07 -3.87121e-08)
(0.000803148 2.2446e-07 5.62063e-08)
(0.00107042 -6.68081e-07 1.46724e-07)
(0.000800776 -2.71831e-07 -7.39141e-08)
(0.000801719 1.7274e-07 1.80364e-08)
(0.00106886 -5.0156e-07 7.47018e-08)
(0.000799329 8.67268e-08 6.2231e-08)
(0.000800447 3.92304e-07 2.70047e-08)
(0.00106719 -2.39349e-07 9.56031e-08)
(0.000798343 3.43121e-07 1.07333e-07)
(0.000799011 -2.28208e-06 6.33428e-08)
(0.00106549 4.97931e-07 2.78655e-07)
(0.000796869 2.50953e-07 6.93311e-08)
(0.000797372 -1.67339e-06 5.23452e-08)
(0.00106395 5.10199e-07 2.94509e-07)
(0.000795205 1.40058e-07 4.7996e-08)
(0.000795851 2.22362e-07 6.99734e-08)
(0.00106177 2.27442e-07 1.75799e-07)
(0.000793762 1.64398e-07 4.5773e-08)
(0.000794378 1.87403e-08 5.09575e-08)
(0.0010596 1.57458e-07 1.84117e-07)
(0.000792359 2.69581e-07 2.45867e-08)
(0.000792955 1.41656e-07 4.87853e-08)
(0.00105773 2.8e-07 1.75159e-07)
(0.000790953 4.78899e-07 5.76742e-08)
(0.000791573 7.96617e-08 2.94079e-08)
(0.00105598 4.42826e-07 1.94554e-07)
(0.000788693 4.83028e-07 1.19009e-07)
(0.000789866 -8.09237e-07 6.84913e-08)
(0.00105346 8.42016e-07 1.61308e-07)
(0.000787403 2.6929e-07 9.39377e-08)
(0.000788133 2.50968e-07 1.02484e-07)
(0.00105099 4.81783e-07 1.66518e-07)
(0.000786043 2.12648e-08 5.83684e-08)
(0.000786564 -2.98431e-09 6.42643e-08)
(0.00104931 2.66103e-07 1.74501e-07)
(0.000784294 -1.72204e-07 5.97643e-08)
(0.00078503 7.33314e-07 6.19317e-08)
(0.00104718 -1.97016e-07 1.57672e-07)
(0.000782975 -2.98752e-07 7.78351e-08)
(0.000783794 -4.83275e-07 6.98114e-08)
(0.0010451 -2.4366e-07 1.80911e-07)
(0.000782243 -2.50949e-07 7.3403e-08)
(0.000782776 1.987e-07 8.26039e-08)
(0.00104393 -5.6379e-07 2.3791e-07)
(0.000780568 -4.81401e-08 5.55015e-08)
(0.000781441 -5.55962e-08 6.90317e-08)
(0.0010422 -1.35717e-07 1.83441e-07)
(0.00077916 1.73618e-07 5.65741e-08)
(0.000779958 7.23648e-08 8.9463e-08)
(0.00104013 -5.10444e-08 1.79443e-07)
(0.000777568 2.1154e-07 8.32928e-09)
(0.000778398 -1.16179e-06 4.45061e-08)
(0.00103821 4.42142e-07 2.24501e-07)
(0.000776055 -8.54332e-09 -5.40724e-08)
(0.000776738 2.74439e-07 2.15615e-08)
(0.00103607 7.26078e-08 1.71196e-07)
(0.000774811 -1.27092e-07 2.05657e-08)
(0.000775267 1.1129e-07 -3.2306e-08)
(0.00103416 -1.50558e-07 1.26427e-07)
(0.000774238 -1.1973e-07 1.14995e-07)
(0.00103276 -2.36376e-07 2.32026e-07)
(-0.00570096 -0.00305758 0.000291105)
(-0.00501991 -0.00257613 0.000367185)
(-0.00297246 -0.012099 0.000361416)
(0.00334677 -0.00323999 -0.00136347)
(-0.000762661 0.00436987 0.000161575)
(-0.00700709 0.00303241 0.000441446)
(0.0106462 -0.00160239 -0.00433085)
(-0.00717393 0.0069361 0.00244845)
(-0.00702064 0.00980218 -0.000778826)
(-0.0037472 0.00260439 -0.000734016)
(0.00501795 -0.00811707 -0.0014247)
(0.000694859 0.000716919 0.00122166)
(0.000617673 -0.00310196 -0.00132844)
(0.00130606 -0.00455637 -0.00127584)
(-0.00152772 -0.00309204 -0.00166417)
(0.00363547 -0.00961213 0.000169792)
(-0.00556157 -0.00745045 -0.000333219)
(-0.000550556 -0.00609581 -5.89008e-05)
(-0.00697172 -0.00156016 8.21161e-05)
(-0.00851689 -0.00941585 0.000324733)
(-0.00891175 -0.00584566 -8.85588e-05)
(-0.013605 -0.00845293 0.000108675)
(-0.0112624 -0.00943586 0.000751535)
(-0.00277675 -0.00720879 0.000391125)
(-0.00150184 0.010413 -0.000659495)
(-0.00692684 0.00177796 0.000276677)
(-0.000545246 0.00230881 -0.000411241)
(0.00321496 -0.0014331 0.000105445)
(-0.00152994 0.000998498 0.000260086)
(0.00180589 0.00332228 9.7032e-05)
(0.00327067 0.00653071 0.000195537)
(0.00137701 0.00163389 6.12495e-05)
(0.000689446 -0.00491194 -0.000226895)
(0.00181952 -0.00119159 0.000713881)
(0.000918888 -2.25464e-05 2.99842e-05)
(0.000951657 7.69648e-05 9.8469e-05)
(0.000561812 -0.000349519 2.48357e-05)
(0.00121442 4.78166e-05 3.12777e-05)
(0.000889576 0.000174681 4.40562e-05)
(0.000358812 -8.13996e-06 2.13568e-06)
(0.000481 1.71087e-06 -3.15634e-06)
(0.000754452 -5.0185e-07 1.58991e-06)
(0.000303507 -4.02522e-05 1.60235e-05)
(0.000691752 -1.44138e-05 9.36404e-06)
(0.000576319 -2.47806e-05 4.13078e-05)
(0.000449959 2.89214e-06 -6.87661e-07)
(0.000349887 -9.31269e-06 2.1374e-06)
(0.000639945 -2.45117e-05 9.41464e-06)
(0.000548837 -2.61631e-05 -1.73224e-06)
(0.000296063 -1.3219e-05 -1.90719e-06)
(0.000835331 -5.2353e-06 -1.42105e-06)
(0.000884395 -1.21706e-05 -2.03441e-06)
(0.00117728 -8.70478e-06 -1.18738e-06)
(0.000600883 4.56174e-07 -4.22772e-06)
(0.000610426 -8.48552e-07 -5.06774e-06)
(0.00100088 7.84924e-06 -5.03425e-06)
(0.00103498 7.25463e-06 -6.04687e-06)
(0.000835962 -1.95026e-06 -1.54188e-07)
(0.000829728 -2.90053e-06 -4.00373e-07)
(0.00110429 -2.19793e-06 8.97833e-08)
(0.000834278 -1.01799e-06 1.06087e-07)
(0.000838002 -1.39388e-06 1.40092e-07)
(0.0011174 -1.24468e-06 2.04824e-07)
(0.000832352 -5.8254e-07 7.05167e-08)
(0.000833353 -6.42369e-07 4.70912e-08)
(0.00111151 -4.3132e-07 1.92791e-07)
(0.000830628 -4.13312e-07 5.91966e-08)
(0.000831564 -6.60514e-08 6.27403e-08)
(0.00110948 -4.94363e-07 2.13464e-07)
(0.000828521 -2.04593e-07 5.19296e-08)
(0.000829503 5.85284e-08 5.10063e-08)
(0.00110668 -2.25725e-07 1.83803e-07)
(0.000826521 -1.00683e-07 5.60833e-08)
(0.000827445 1.26204e-07 5.11457e-08)
(0.00110374 -9.40293e-08 1.84392e-07)
(0.00082523 -2.42154e-08 5.14203e-08)
(0.000825681 4.03516e-08 5.31931e-08)
(0.00110161 -5.20723e-08 1.87232e-07)
(0.000823285 3.48115e-08 5.57405e-08)
(0.000824002 1.43372e-07 4.77754e-08)
(0.00109945 4.81871e-08 1.73589e-07)
(0.000821449 -3.53356e-08 8.42806e-08)
(0.000822162 -6.39512e-07 4.68928e-08)
(0.00109691 6.70326e-08 2.12051e-07)
(0.000819225 -8.81052e-08 7.64831e-08)
(0.00082036 4.71839e-07 8.23159e-08)
(0.00109411 -1.66538e-07 1.74899e-07)
(0.000818034 -1.04442e-07 4.34795e-08)
(0.000818717 -3.74017e-07 4.04773e-08)
(0.00109183 -7.60375e-08 1.84176e-07)
(0.00081628 -4.76712e-08 4.16993e-08)
(0.000817229 7.12551e-07 6.02923e-08)
(0.00108994 -1.84707e-07 1.47517e-07)
(0.000815142 2.24077e-07 2.9546e-08)
(0.000815855 -2.05067e-07 4.93827e-08)
(0.00108801 7.58489e-08 1.81456e-07)
(0.000813124 3.32827e-07 4.43429e-08)
(0.000814219 -4.11878e-07 5.17131e-09)
(0.00108599 5.12456e-07 1.39891e-07)
(0.000811363 1.80992e-07 6.31279e-08)
(0.000812371 -6.68249e-08 5.19839e-08)
(0.00108332 3.80633e-07 2.44724e-07)
(0.000809988 4.20924e-08 4.51205e-08)
(0.000810818 -1.58269e-07 3.829e-08)
(0.00108123 1.06226e-07 1.76265e-07)
(0.000808516 -4.12576e-08 4.65762e-08)
(0.000809296 -1.05656e-07 4.94586e-08)
(0.00107941 2.99115e-09 1.82054e-07)
(0.000806788 -9.56575e-08 5.54517e-08)
(0.000807713 1.65855e-09 5.55374e-08)
(0.00107727 -8.66869e-08 1.59853e-07)
(0.000804884 -2.07511e-07 5.81018e-09)
(0.000806031 7.19056e-08 5.71577e-08)
(0.00107465 -1.2061e-07 1.98753e-07)
(0.000804287 -2.7126e-08 -3.06583e-09)
(0.000804843 9.17805e-07 -1.76693e-08)
(0.00107308 -3.76005e-07 -5.99765e-08)
(0.000803024 3.49147e-07 1.12967e-07)
(0.000803617 8.80904e-07 4.68069e-08)
(0.001072 3.69767e-07 1.09597e-07)
(0.000801288 4.87055e-07 1.18952e-07)
(0.000801889 4.25603e-07 1.30651e-07)
(0.0010698 6.6548e-07 1.8024e-07)
(0.000800234 5.10997e-07 2.81051e-08)
(0.000800474 5.95798e-07 -4.142e-08)
(0.00106816 7.24972e-07 1.23726e-07)
(0.000797957 4.26027e-07 8.35847e-09)
(0.000798903 6.23551e-08 2.28492e-08)
(0.00106604 6.57149e-07 8.03281e-08)
(0.000796397 2.53441e-07 5.2982e-08)
(0.000797155 1.27937e-07 3.11155e-08)
(0.00106315 4.74427e-07 5.51774e-08)
(0.000794992 1.54538e-07 7.29408e-08)
(0.000795727 9.2788e-08 7.68896e-08)
(0.00106122 1.84051e-07 1.78703e-07)
(0.000793571 1.12783e-07 5.39705e-08)
(0.000794326 -9.99594e-08 5.826e-08)
(0.00105946 1.90007e-07 1.79012e-07)
(0.00079216 8.87265e-09 5.36125e-08)
(0.000792825 9.78551e-08 5.818e-08)
(0.00105751 9.92357e-08 1.72758e-07)
(0.000790658 -1.3204e-07 4.02129e-08)
(0.000791397 -2.7925e-08 5.39194e-08)
(0.00105558 -5.04134e-08 1.85684e-07)
(0.000789083 -1.95975e-07 5.19557e-08)
(0.000789787 -3.7721e-07 2.13274e-08)
(0.00105356 -2.55742e-07 1.5376e-07)
(0.00078747 -2.06972e-07 7.2822e-08)
(0.00078812 -5.82851e-07 3.75349e-08)
(0.00105136 -2.25511e-07 2.48668e-07)
(0.000785388 -1.87697e-07 6.78283e-08)
(0.000786588 7.36469e-07 6.07798e-08)
(0.00104884 -2.83767e-07 1.7787e-07)
(0.000784539 7.77223e-08 7.19763e-08)
(0.000785361 -6.91542e-08 4.45396e-08)
(0.0010469 -1.50945e-07 1.78119e-07)
(0.000783479 3.16227e-07 7.45762e-08)
(0.000784091 -1.93727e-06 1.19449e-07)
(0.00104569 4.37552e-07 2.4459e-07)
(0.000782205 2.71076e-07 7.82367e-08)
(0.000782717 2.65035e-07 4.15204e-08)
(0.00104415 4.91364e-07 1.54027e-07)
(0.000780733 2.30965e-07 1.02987e-07)
(0.000781389 -6.93692e-08 5.55408e-08)
(0.00104229 3.33676e-07 1.77975e-07)
(0.000779292 2.7388e-07 7.74088e-08)
(0.00078001 -2.09207e-08 8.22349e-08)
(0.00104044 3.82238e-07 1.81131e-07)
(0.000777462 3.55654e-07 5.77453e-08)
(0.000778499 -5.42381e-08 5.45359e-08)
(0.00103821 4.07194e-07 1.29301e-07)
(0.000775992 3.32985e-07 4.33443e-08)
(0.000776708 3.90628e-07 6.35348e-08)
(0.00103588 5.49751e-07 1.68816e-07)
(0.000774478 1.91002e-07 6.20781e-08)
(0.000775087 1.6957e-07 2.34924e-08)
(0.00103385 3.14892e-07 1.77197e-07)
(0.000773999 -9.99775e-07 1.41799e-07)
(0.00103251 1.76533e-07 2.01918e-07)
(-0.000300129 0.00383686 0.000237722)
(0.00244248 -0.000420615 0.00011164)
(-0.00339216 0.00379708 -5.00169e-05)
(0.00576677 0.00139495 0.000264936)
(-0.000739568 8.69729e-05 0.000555551)
(0.00589526 0.00367729 0.000319279)
(0.000605246 -0.0152182 -0.000302388)
(0.00142597 -0.00404908 0.00166435)
(0.00373607 -0.0127328 0.000240406)
(0.00437361 -0.00138016 0.00143475)
(0.00309792 0.00432976 -0.000241225)
(0.0118293 -0.0036191 0.00223528)
(-0.00156019 -0.0086966 0.00406162)
(0.00613166 0.0162219 -0.00267525)
(0.00909162 -0.00939515 -0.00276299)
(0.00545341 -0.00573874 -0.000150823)
(0.00737608 0.00213277 0.000987669)
(0.012314 -0.00454307 -9.465e-05)
(-0.000269497 0.000165869 -0.000665283)
(0.00316898 -0.000304837 -0.00100231)
(0.00272195 -0.00221426 0.00129082)
(0.0103914 -0.000722093 0.00133484)
(0.00234218 -0.00952445 0.000376749)
(0.00534915 -0.00388278 0.0034161)
(0.00136648 -0.00754201 0.000796127)
(-0.00722891 0.0113945 0.00090589)
(-0.0233737 -0.00226074 0.000747586)
(-0.00599932 -0.0124943 0.00116475)
(-0.00674005 -0.00265988 0.00392968)
(-0.0189059 0.00932509 -0.000615318)
(0.000207669 0.0253525 -0.000841567)
(-0.00251821 0.00469707 -0.00156912)
(-0.0286398 0.00270326 -0.00148903)
(0.00177105 -0.00249149 -0.0047656)
(-0.0173693 0.00747637 -0.00144402)
(-0.0020281 0.019855 -0.00813821)
(-0.0274923 0.00745831 0.00385013)
(-0.00914822 0.0176732 0.00791277)
(-0.0143978 0.00311289 -0.0190517)
(0.00301552 0.000279149 0.00210575)
(0.0179282 -0.00336114 0.000673409)
(0.0313486 3.64713e-05 0.0018397)
(-0.00792283 -0.00118345 -0.000368037)
(-0.0161073 0.00657209 -0.000511876)
(-0.032528 -0.011807 0.00138174)
(-0.00703434 -0.00109752 -0.000655473)
(-0.00521778 -0.00493337 0.000249008)
(-0.0348987 -0.00200357 -0.00137177)
(0.0011671 0.000420204 -5.93105e-05)
(0.00055559 0.000293098 -4.4063e-06)
(0.000908178 -0.000221739 -2.58872e-05)
(0.000941451 -0.000954931 2.66549e-05)
(0.00058838 0.000188566 2.81734e-05)
(0.000445885 0.000701284 -0.000117824)
(0.000243769 0.000489013 2.3512e-05)
(0.000384213 0.000498571 -2.13897e-05)
(0.00105947 0.000392229 2.25177e-05)
(0.00172401 0.000746783 -5.52888e-05)
(0.000918727 0.000108581 -1.82172e-05)
(0.00072127 0.000204299 9.00876e-05)
(0.000937135 0.000333694 -1.399e-05)
(0.00085987 3.11892e-05 8.03247e-05)
(0.000905087 -0.00010745 1.32093e-05)
(0.000410672 -2.62821e-05 1.94403e-05)
(0.000476904 -8.9606e-05 3.59222e-05)
(0.000604174 -6.2643e-05 5.78776e-05)
(0.000270837 -3.08134e-05 1.38476e-05)
(0.000843952 -6.83501e-06 -1.01427e-06)
(0.000870436 -1.06092e-05 -2.0751e-06)
(0.00118671 -1.46563e-05 -1.25826e-06)
(0.000611204 -1.40992e-05 -4.59764e-06)
(0.000626986 1.46022e-06 -4.73794e-06)
(0.00102089 -2.09174e-05 -4.95136e-06)
(0.00105962 1.5629e-05 -3.68451e-06)
(0.000839353 -3.5179e-07 -1.06269e-07)
(0.000837683 2.17372e-06 -1.99022e-07)
(0.00111174 1.39579e-06 8.9821e-08)
(0.000835792 7.65787e-08 8.11264e-08)
(0.000838519 7.42138e-07 1.08125e-07)
(0.00111952 6.16338e-07 2.04186e-07)
(0.000832764 4.51804e-07 3.93097e-08)
(0.000833809 1.19978e-06 5.33118e-08)
(0.00111244 1.38368e-06 1.78092e-07)
(0.000830509 3.89165e-07 5.45538e-08)
(0.000831476 6.77555e-07 7.56359e-08)
(0.00110931 9.17991e-07 1.86446e-07)
(0.00082846 4.53348e-07 5.02224e-08)
(0.000829576 5.9854e-07 5.25976e-08)
(0.00110638 7.8753e-07 1.83004e-07)
(0.000826489 4.83635e-07 4.82549e-08)
(0.000827478 5.96898e-07 3.69993e-08)
(0.0011037 8.16895e-07 1.83254e-07)
(0.000824555 2.29018e-07 4.95499e-08)
(0.00082536 4.78575e-07 3.80337e-08)
(0.00110105 6.99786e-07 1.82939e-07)
(0.000822885 -8.13111e-08 3.8928e-08)
(0.000823612 1.86821e-07 5.22203e-08)
(0.00109867 5.52243e-08 1.86589e-07)
(0.000821064 -2.646e-07 4.49167e-08)
(0.000821933 1.1912e-07 4.00528e-08)
(0.00109629 -1.66948e-07 1.50311e-07)
(0.000819797 -3.56272e-07 4.63236e-08)
(0.000820246 9.68723e-09 9.47027e-08)
(0.00109428 -4.67489e-07 1.87223e-07)
(0.000817876 -3.60238e-07 5.72839e-08)
(0.000818713 6.68058e-08 4.80034e-08)
(0.00109219 -4.3941e-07 1.81379e-07)
(0.000816764 -3.1428e-07 6.79792e-08)
(0.000817287 -6.68678e-08 7.93086e-08)
(0.00109012 -4.75818e-07 1.95938e-07)
(0.000815121 -2.806e-07 2.50221e-08)
(0.000815899 -6.25557e-08 3.83047e-08)
(0.00108836 -3.23075e-07 1.78289e-07)
(0.000813348 -2.40647e-07 1.27974e-08)
(0.00081427 -2.02402e-07 1.37672e-07)
(0.00108603 -4.04078e-07 1.84973e-07)
(0.000811812 -7.03013e-08 2.71504e-08)
(0.000812585 -6.4e-08 4.53514e-08)
(0.00108375 -2.31659e-07 1.78359e-07)
(0.000810131 8.56276e-08 4.26246e-08)
(0.000811013 -7.34087e-08 5.04245e-08)
(0.00108169 2.6904e-08 1.85139e-07)
(0.000808478 2.12604e-07 5.84179e-08)
(0.000809454 -1.54394e-07 5.84396e-08)
(0.00107946 1.78594e-07 1.92148e-07)
(0.000807036 3.87838e-07 5.72428e-08)
(0.000807931 -1.06872e-08 6.39548e-08)
(0.00107734 3.74354e-07 1.71391e-07)
(0.00080571 7.33527e-07 3.37018e-08)
(0.000806461 5.69232e-07 5.82137e-08)
(0.00107545 6.73954e-07 1.25795e-07)
(0.000804458 8.2335e-07 3.21831e-08)
(0.000804951 7.80021e-07 4.96134e-08)
(0.00107388 1.33948e-06 1.64494e-07)
(0.000802413 5.50104e-07 6.44652e-08)
(0.000803271 1.73893e-07 6.30115e-08)
(0.00107171 9.4039e-07 2.74878e-07)
(0.000801015 4.83043e-07 -2.96669e-08)
(0.000801802 3.88435e-07 6.74112e-08)
(0.0010693 6.45764e-07 1.70817e-07)
(0.000799308 2.83398e-07 -4.6696e-08)
(0.000800222 -7.09722e-07 -4.6857e-08)
(0.00106717 7.85683e-07 2.88445e-07)
(0.000797914 1.42184e-08 4.56036e-08)
(0.000798565 -5.05466e-08 6.17918e-08)
(0.00106517 8.63999e-08 1.76473e-07)
(0.000796521 5.01444e-08 5.50088e-08)
(0.0007972 4.07887e-08 4.92308e-08)
(0.00106335 -1.95556e-10 1.74683e-07)
(0.000795104 8.46314e-08 6.22146e-08)
(0.00079577 3.72465e-08 6.14634e-08)
(0.00106142 1.42047e-07 1.74437e-07)
(0.00079352 6.30505e-08 6.24695e-08)
(0.000794298 5.59268e-08 5.61489e-08)
(0.00105949 8.64648e-08 1.74014e-07)
(0.00079208 1.17099e-09 5.84883e-08)
(0.000792748 -7.6543e-09 4.33281e-08)
(0.00105743 6.01421e-08 1.79818e-07)
(0.000790587 -1.70945e-07 3.50441e-08)
(0.000791183 -1.22644e-07 6.77893e-08)
(0.00105554 -7.71301e-08 1.83972e-07)
(0.000788758 -3.05596e-07 6.9016e-09)
(0.00078962 -2.11484e-07 3.54203e-08)
(0.00105325 -4.09939e-07 1.95626e-07)
(0.000787293 -2.27483e-07 2.54855e-08)
(0.000788219 7.6477e-07 -5.60906e-08)
(0.00105096 -4.54351e-07 7.83907e-08)
(0.000786354 1.36576e-07 3.74961e-08)
(0.000787044 1.0754e-07 5.61748e-08)
(0.0010494 -1.54076e-07 1.73516e-07)
(0.000785137 4.05092e-07 9.19889e-08)
(0.000785695 5.96126e-07 7.54086e-08)
(0.00104808 5.39394e-07 1.05448e-07)
(0.00078316 3.94032e-07 8.64168e-08)
(0.000784075 2.50567e-07 9.24112e-08)
(0.0010459 5.69192e-07 6.40327e-08)
(0.000781981 2.34745e-07 1.88202e-08)
(0.000782516 5.36357e-07 5.21625e-08)
(0.00104379 5.33197e-07 1.30658e-07)
(0.000780654 7.5181e-08 3.47806e-08)
(0.000781189 2.18395e-07 4.14355e-08)
(0.00104206 1.33863e-07 1.42881e-07)
(0.000779286 5.14638e-08 5.93704e-08)
(0.00077998 4.25849e-08 4.70824e-08)
(0.00104022 8.61669e-08 1.63015e-07)
(0.000777785 1.69984e-07 6.03226e-08)
(0.000778646 9.90941e-07 4.35641e-08)
(0.00103841 3.69818e-08 1.03924e-07)
(0.000775728 2.26649e-07 4.36951e-08)
(0.000776778 1.17986e-06 4.54382e-08)
(0.00103595 3.65496e-07 1.73238e-07)
(0.000774442 2.00804e-07 1.03178e-07)
(0.000775052 2.57705e-08 5.90638e-08)
(0.00103369 2.13466e-07 1.71148e-07)
(0.00077375 -1.29838e-06 1.09445e-07)
(0.00103214 3.30572e-07 2.00181e-07)
(0.00283078 -0.00273119 0.000471389)
(-0.00626694 0.00182167 0.000832213)
(0.00688212 -0.00481389 -9.56217e-05)
(-0.00310775 -0.0297937 0.000183816)
(0.00236014 -0.00634875 0.00157994)
(-0.00334747 -0.00821118 0.00161361)
(-0.0265885 0.00319478 0.00106315)
(-0.00617335 0.00258567 0.00186355)
(-0.0139408 0.00226098 0.00255858)
(-0.00413063 -0.0164331 0.000128151)
(-0.00792842 -0.0197187 0.00054667)
(-0.00120046 -0.00539669 0.00190487)
(1.16221e-05 0.00317082 -0.000482525)
(0.00285841 0.00788643 0.00042958)
(0.00103839 -0.0101031 -0.000540192)
(0.00183895 -0.00335444 -0.000369202)
(0.0106917 0.00889665 0.00168266)
(0.0141481 -0.00322743 0.00455346)
(0.000948693 -0.00552144 -0.000723575)
(0.00943425 0.00522569 -0.000611922)
(0.00357336 0.00359422 -0.000410437)
(0.00404838 0.00309003 -0.00126852)
(0.00486387 -0.00279326 -0.00060028)
(0.000198179 -0.00959497 -0.000204662)
(0.00546235 0.0100106 0.000663602)
(-0.00135811 -0.000447951 9.14489e-05)
(0.00388678 0.00329143 0.00150318)
(0.01334 0.00810746 0.000103917)
(-0.00432189 0.0128305 0.000848432)
(3.25164e-05 0.00086292 0.000242935)
(0.00314192 0.00259923 0.000536115)
(-0.00216757 0.00776948 0.000348139)
(-0.00258567 -0.00499548 -3.61748e-05)
(-0.00357262 -0.00448333 -0.00039185)
(-0.000896946 -0.00347674 -0.000137924)
(-0.00111598 -0.00239015 -2.62283e-05)
(-0.00509396 -0.00776829 -0.000400818)
(0.000359757 -0.00101499 -1.25221e-05)
(0.000627589 -0.000559117 -2.40439e-05)
(0.00113651 -0.000872341 2.41828e-06)
(-0.000210581 -0.00190128 -3.30256e-05)
(0.000195487 -0.00115611 3.06706e-05)
(-0.000291723 -0.00220889 -2.33163e-05)
(0.000130892 -0.00207748 3.58908e-05)
(0.000735299 -0.00112096 -2.20741e-05)
(0.000746191 -0.000656451 9.35227e-06)
(0.000638014 -0.000744716 8.5346e-06)
(0.000841138 -0.000817005 6.84753e-06)
(0.00139094 2.25376e-05 8.22032e-05)