/*--------------------------------*- C++ -*----------------------------------*\
| =========                 |                                                 |
| \\      /  F ield         | OpenFOAM: The Open Source CFD Toolbox           |
|  \\    /   O peration     | Version:  5.0                                   |
|   \\  /    A nd           | Web:      www.OpenFOAM.org                      |
|    \\/     M anipulation  |                                                 |
\*---------------------------------------------------------------------------*/
FoamFile
{
    version     2.0;
    format      ascii;
    class       surfaceVectorField;
    location    "4.2";
    object      Uf_0;
}
// * * * * * * * * * * * * * * * * * * * * * * * * * * * * * * * * * * * * * //

dimensions      [0 1 -1 0 0 0 0];

internalField   nonuniform List<vector> 
23584
(
(0.00383657 -0.00136144 0.000154115)
(0.000731357 0.00160979 -0.000321289)
(-0.00463121 0.00115893 -0.000234651)
(0.00398234 -0.000923577 -0.00075321)
(0.00463932 0.016296 -0.000879578)
(-0.00256495 0.0112806 0.000258787)
(0.00617791 0.000396244 0.00031896)
(0.00603426 -0.00520785 -0.00021172)
(0.00914813 0.00974305 -0.000143424)
(0.00360914 0.00388696 0.000187456)
(0.00249598 0.00210244 0.000112902)
(0.00237624 0.00371941 0.000609978)
(-0.002943 0.00680321 0.000284467)
(0.000164394 0.00154361 0.00028228)
(0.00545706 -0.00746613 0.000333864)
(0.0112184 -0.0100972 9.78185e-05)
(0.00211829 -0.0048428 0.000438283)
(-0.00208265 0.00208058 0.000406617)
(0.00467317 -0.00205598 0.000339282)
(0.00648763 -0.00207237 0.00061297)
(-0.00358904 -0.00374834 -0.000382347)
(-0.00138922 -0.0026806 -0.00014379)
(-0.00424961 -0.00170324 -0.000497927)
(-0.00464777 -0.00922359 6.1372e-05)
(0.00609575 0.00249271 -8.83776e-05)
(0.00261786 0.00325685 6.40414e-05)
(0.00306783 0.00496519 0.000161998)
(0.00519656 0.00403876 0.000115117)
(0.00192611 -2.32704e-05 8.28819e-05)
(0.000656442 -9.90473e-05 5.8153e-05)
(0.000862528 -0.000143563 0.000112673)
(0.000595757 -8.09295e-05 3.60491e-05)
(0.000933037 -5.57311e-05 -1.59273e-06)
(0.000667279 -2.73493e-05 -1.82271e-06)
(0.00125557 -0.000103344 -2.31549e-06)
(0.000712344 -8.99826e-05 -4.59647e-06)
(0.000692091 -8.02008e-05 -3.14412e-06)
(0.0012324 -0.00015816 -2.24224e-06)
(0.00119971 -0.000141437 1.8862e-06)
(0.000632535 -3.90754e-05 -4.88622e-06)
(0.00112177 -4.26903e-05 -1.28523e-06)
(0.00104466 -5.57514e-05 -5.82904e-06)
(0.000882112 -2.68506e-05 -5.08935e-08)
(0.000925539 -1.08962e-06 -7.02199e-07)
(0.0012047 -3.48837e-05 1.69512e-07)
(0.000862085 -1.96398e-05 2.8533e-08)
(0.000863781 -1.27954e-05 -2.49727e-07)
(0.00115615 -3.05554e-05 1.60993e-07)
(0.000849462 -1.19485e-05 8.2225e-08)
(0.000857162 -8.06041e-06 1.29647e-07)
(0.00113879 -1.80167e-05 1.80119e-07)
(0.000842278 -7.44048e-06 3.51595e-08)
(0.000846448 -5.90422e-06 4.59592e-08)
(0.00112594 -1.1572e-05 1.85803e-07)
(0.000837781 -4.51045e-06 4.68278e-08)
(0.000840715 -4.61604e-06 3.08946e-08)
(0.00111916 -6.93667e-06 2.02474e-07)
(0.000834105 -2.78701e-06 6.86874e-08)
(0.000836275 -2.32365e-06 6.8184e-08)
(0.00111395 -4.28258e-06 1.84247e-07)
(0.000831267 -1.66157e-06 3.13425e-08)
(0.000833087 -1.41437e-06 5.11481e-08)
(0.00110967 -2.6352e-06 1.84858e-07)
(0.000829236 -1.09322e-06 3.26789e-08)
(0.000830434 -1.28298e-06 3.87132e-08)
(0.00110658 -1.4991e-06 1.89234e-07)
(0.000827163 -8.3863e-07 7.0505e-08)
(0.00082822 -4.56795e-07 5.67689e-08)
(0.00110391 -1.23224e-06 1.81482e-07)
(0.000825285 -5.9945e-07 8.46343e-08)
(0.000826397 -4.69224e-07 8.30222e-08)
(0.00110133 -8.62328e-07 2.07035e-07)
(0.000823585 -4.95934e-07 9.35533e-08)
(0.000824621 -5.50849e-07 6.47542e-08)
(0.00109892 -6.33996e-07 2.04919e-07)
(0.000822299 -4.146e-07 8.28271e-08)
(0.000823022 2.45372e-08 6.50257e-08)
(0.00109696 -6.15697e-07 2.38519e-07)
(0.000820791 -2.40023e-07 6.13404e-08)
(0.000821529 1.00793e-08 7.07351e-08)
(0.00109516 -4.23205e-07 2.21258e-07)
(0.000819141 -1.67823e-07 5.10586e-08)
(0.000819855 1.33161e-07 5.57148e-08)
(0.00109299 -1.32299e-07 1.4842e-07)
(0.000817439 -1.52197e-07 4.23415e-08)
(0.000818216 2.07461e-07 4.37676e-08)
(0.00109072 -2.27227e-07 1.74675e-07)
(0.000815906 -5.45963e-09 5.41069e-08)
(0.000816836 -1.78467e-07 3.99888e-08)
(0.00108862 -1.09607e-07 1.83449e-07)
(0.000814443 1.879e-07 5.67435e-08)
(0.00081539 -4.00122e-07 1.87206e-08)
(0.00108664 1.63796e-07 1.92422e-07)
(0.000813039 2.74916e-07 6.32177e-08)
(0.000813784 6.20843e-07 6.13566e-08)
(0.00108465 4.25695e-07 1.39707e-07)
(0.000811752 2.02314e-07 6.33958e-08)
(0.000812251 -9.86644e-07 6.11369e-08)
(0.00108285 3.77512e-07 2.27229e-07)
(0.000810204 2.2086e-07 7.13631e-08)
(0.000810887 5.03835e-08 4.89786e-08)
(0.00108114 1.87525e-07 1.82305e-07)
(0.000808111 1.04878e-07 1.31782e-07)
(0.000809096 -4.71725e-07 4.9484e-08)
(0.00107858 4.07213e-07 2.98439e-07)
(0.000806712 -3.53558e-07 5.70374e-08)
(0.000807181 -1.2839e-07 1.10546e-07)
(0.00107615 -1.58718e-07 1.58138e-07)
(0.000805318 -5.62458e-07 -2.42625e-08)
(0.000805905 1.8477e-06 3.78783e-08)
(0.00107442 -8.30584e-07 -1.91867e-08)
(0.000803645 -4.60903e-07 5.67534e-08)
(0.000804569 8.10266e-07 3.23927e-08)
(0.00107222 -6.92091e-07 1.01779e-07)
(0.000802382 -3.05183e-07 8.31278e-08)
(0.000803131 1.81398e-07 1.47887e-07)
(0.00107024 -5.28531e-07 2.0545e-07)
(0.000801275 -4.31094e-08 4.97004e-08)
(0.000801999 5.30296e-08 4.57994e-08)
(0.00106889 -2.32137e-07 1.3141e-07)
(0.000799584 1.12837e-07 4.59129e-08)
(0.000800453 1.22217e-07 4.13398e-08)
(0.00106705 1.85054e-07 1.64552e-07)
(0.000797809 1.21786e-08 7.51588e-08)
(0.000798637 1.9258e-07 7.20339e-08)
(0.00106463 1.89859e-07 2.04727e-07)
(0.000796151 1.73133e-08 6.44972e-08)
(0.000797115 1.56287e-07 7.09429e-08)
(0.00106229 -7.02725e-08 1.73623e-07)
(0.000794726 2.45044e-07 -9.86142e-09)
(0.00079561 1.09926e-07 4.37544e-08)
(0.00106013 1.93719e-07 1.68161e-07)
(0.000793102 4.07112e-07 1.08199e-08)
(0.000794057 2.64047e-07 -1.66291e-08)
(0.00105822 5.40206e-07 1.918e-07)
(0.00079219 2.68562e-07 5.23278e-08)
(0.000792575 -1.03798e-06 7.49092e-08)
(0.00105667 5.93537e-07 1.99709e-07)
(0.000790615 5.37008e-08 4.65233e-08)
(0.00079113 1.44051e-07 2.03266e-08)
(0.00105489 1.27855e-07 1.76924e-07)
(0.000789133 -1.63825e-07 7.20639e-08)
(0.000789557 -7.06272e-08 6.50189e-08)
(0.00105272 2.48143e-08 1.86262e-07)
(0.000787646 -2.71104e-07 1.60915e-07)
(0.000788246 1.10521e-06 6.2478e-08)
(0.00105102 -4.53842e-07 2.24721e-07)
(0.000786078 -1.67731e-07 1.58095e-07)
(0.000786921 -4.50826e-07 1.49781e-07)
(0.00104885 -2.71975e-07 1.97752e-07)
(0.000784562 -1.80979e-07 5.31611e-08)
(0.000785352 6.0449e-08 6.92295e-08)
(0.00104672 -1.91215e-07 1.78543e-07)
(0.000783177 -2.49335e-07 4.72598e-08)
(0.000783854 -1.44839e-08 4.38585e-08)
(0.00104484 -3.17539e-07 1.69753e-07)
(0.000781769 -3.75581e-07 1.12768e-07)
(0.000782441 -1.41383e-07 6.53979e-08)
(0.00104291 -3.40906e-07 1.94935e-07)
(0.000780344 -3.86976e-07 6.97962e-08)
(0.000781081 -3.83261e-07 1.06793e-07)
(0.00104122 -6.07157e-07 1.73749e-07)
(0.000778467 -2.57359e-07 3.13857e-08)
(0.000779389 1.26167e-06 3.22077e-08)
(0.00103888 -3.976e-07 8.47045e-08)
(0.000777959 -5.02895e-07 5.67685e-08)
(0.00103645 -3.04297e-07 2.66152e-07)
(0.00128242 0.00375147 -0.000380581)
(-0.00215422 -0.00490255 0.000123012)
(-0.000433496 -0.00530421 0.000396879)
(0.00725801 -0.00652159 -0.000157951)
(-0.00331552 0.0047982 -9.02414e-05)
(0.000599446 0.00888048 -0.000490291)
(0.0039555 0.00150237 -0.000792847)
(0.00293753 0.00310137 8.01465e-05)
(-0.00729347 0.00816663 0.000219375)
(-0.0121701 0.0052541 -0.000749893)
(-0.00117645 -0.00245792 -0.000253726)
(0.013466 -0.00880025 -0.000613545)
(0.00808287 0.00283587 -0.000656212)
(0.000599446 0.00888048 -0.000490291)
(0.000599446 0.00888048 -0.000490291)
(0.000599446 0.00888048 -0.000490291)
(-0.00704259 -0.00643299 0.000165247)
(0.0171714 0.00078481 0.000465082)
(0.00689307 -0.0148073 -1.17233e-05)
(0.0167348 -0.0154984 -0.000112828)
(-0.0132315 0.00422422 0.000217455)
(-0.0115161 -0.00638654 0.00213433)
(-0.020123 -0.00784759 0.000447124)
(0.00770946 -0.00695188 0.000241746)
(0.00323546 0.00327884 0.000715466)
(0.00509814 -0.00152799 0.000290295)
(-0.00353753 -0.018646 -0.000248975)
(-0.00456136 0.00126312 0.00062773)
(0.00298543 -0.00494232 -4.68409e-05)
(0.00272774 -0.00387491 6.44383e-05)
(0.0047772 0.00111042 0.000109954)
(0.00532877 0.000593125 -3.42239e-05)
(0.00288434 0.00092947 -0.000447005)
(-0.000194388 -0.00401289 0.000239304)
(0.00357356 -0.00615298 0.000505758)
(-0.00446614 -0.00406905 -0.000278029)
(-0.00432848 -0.00418299 3.65415e-05)
(-0.00400919 -0.0037052 0.000107919)
(-0.00583072 -0.00200898 -0.000115042)
(-0.00384162 -0.00154381 8.77958e-05)
(-0.00624968 -0.00397075 -2.45145e-05)
(0.00154816 3.12057e-05 6.07797e-05)
(0.0012318 2.20182e-05 1.88781e-05)
(0.00167405 0.000399721 2.69605e-05)
(0.00141914 0.000119835 -9.55901e-06)
(0.00135941 -4.69799e-06 3.02503e-05)
(0.000372134 -3.68035e-05 -2.91363e-06)
(0.000536161 -1.8169e-05 -3.60483e-06)
(0.000526411 -1.81229e-05 -5.73984e-07)
(0.000867942 -3.13786e-05 -1.37057e-06)
(0.000374958 -2.05391e-05 -2.47632e-06)
(0.000674412 -8.57266e-05 -4.25727e-06)
(0.000686526 -4.43262e-05 -2.16062e-06)
(0.000876975 3.1087e-06 -9.01181e-07)
(0.000936317 9.46451e-06 -1.84558e-06)
(0.00125254 1.20274e-05 -1.16724e-06)
(0.000649623 -8.29934e-06 -4.29352e-06)
(0.000664781 2.55481e-06 -4.95524e-06)
(0.0010665 -2.22821e-05 -5.23654e-06)
(0.00110279 1.03346e-06 -6.31643e-06)
(0.00086224 -2.2505e-06 -1.48737e-07)
(0.000857014 5.08157e-06 -4.33007e-07)
(0.00114078 -3.06205e-06 7.89892e-08)
(0.000851779 -1.93636e-06 9.34088e-08)
(0.000857555 2.57978e-06 1.48643e-07)
(0.00114276 -2.3451e-06 2.1317e-07)
(0.000844456 -1.64022e-06 4.16991e-08)
(0.00084682 1.40378e-06 5.60817e-08)
(0.00112854 -2.40486e-06 1.7385e-07)
(0.000838641 -1.1846e-06 5.22386e-08)
(0.000841288 3.54334e-07 4.56431e-08)
(0.00112097 -1.69502e-06 2.05732e-07)
(0.000835001 -8.35968e-07 5.06502e-08)
(0.000836713 2.64983e-07 4.95415e-08)
(0.00111487 -1.31594e-06 1.83526e-07)
(0.000832181 -5.37583e-07 5.85228e-08)
(0.000833463 1.57422e-07 5.28103e-08)
(0.00111092 -8.38771e-07 1.83453e-07)
(0.000829221 -2.04976e-07 6.27973e-08)
(0.000830851 6.52286e-07 5.92609e-08)
(0.00110712 -5.62174e-07 1.70952e-07)
(0.000827422 1.37797e-07 6.92776e-08)
(0.000828648 -1.77072e-07 5.1434e-08)
(0.00110401 1.88332e-08 1.8523e-07)
(0.000825692 3.56502e-07 6.3148e-08)
(0.00082667 -2.69185e-07 6.07372e-08)
(0.0011018 3.30716e-07 1.84874e-07)
(0.000823991 3.74096e-07 3.62265e-08)
(0.000824641 -3.07027e-07 7.36002e-08)
(0.00109949 5.9506e-07 1.79568e-07)
(0.000822274 2.58447e-07 5.29318e-08)
(0.000822876 3.17915e-07 6.15803e-08)
(0.00109719 3.84347e-07 1.77616e-07)
(0.000820621 1.6355e-07 6.51142e-08)
(0.00082141 3.97013e-07 1.20228e-07)
(0.00109502 3.03484e-07 1.65633e-07)
(0.000818901 1.35836e-07 4.84276e-08)
(0.000819819 1.28374e-07 4.8598e-08)
(0.0010927 1.47765e-07 1.9868e-07)
(0.000817566 2.10886e-07 4.14162e-08)
(0.000818309 3.67745e-07 9.05077e-08)
(0.00109059 2.69049e-07 1.53688e-07)
(0.000816341 1.94709e-07 4.6093e-09)
(0.000816815 -1.11147e-06 -2.18879e-08)
(0.00108906 3.71186e-07 2.20282e-07)
(0.00081473 1.0764e-07 2.33202e-08)
(0.00081528 6.23002e-09 1.00907e-08)
(0.00108717 2.09021e-07 1.60528e-07)
(0.000813015 7.28085e-08 5.92759e-08)
(0.00081374 5.00481e-10 8.03018e-08)
(0.00108481 1.28415e-07 2.41355e-07)
(0.000811338 -3.01901e-08 4.67235e-08)
(0.000812123 -5.55084e-08 5.63384e-08)
(0.00108251 1.12177e-07 1.29102e-07)
(0.000809953 -3.27444e-07 2.70993e-08)
(0.000810517 -1.24409e-07 5.23754e-08)
(0.00108063 -1.71077e-07 1.81006e-07)
(0.000808068 -4.76831e-07 2.82288e-08)
(0.000808911 1.35454e-06 3.42436e-09)
(0.00107839 -7.52062e-07 8.39103e-08)
(0.000806193 -4.10141e-07 9.14098e-08)
(0.000807267 -2.96675e-07 4.14937e-08)
(0.0010757 -5.83657e-07 2.23353e-07)
(0.000805299 -3.10152e-07 9.45351e-08)
(0.000806032 -7.16563e-08 1.1188e-07)
(0.00107404 -5.24192e-07 2.60473e-07)
(0.000804029 4.75469e-08 1.2349e-07)
(0.000805016 -1.56578e-07 5.97692e-08)
(0.00107263 -2.91697e-07 2.26337e-07)
(0.000802638 4.39217e-07 1.1059e-07)
(0.00080362 5.55667e-07 2.52696e-07)
(0.0010708 4.94059e-07 1.41585e-07)
(0.000801449 3.22675e-07 3.74402e-08)
(0.000801852 9.36247e-07 8.86476e-08)
(0.00106916 7.89419e-07 8.73987e-08)
(0.000799345 7.47597e-08 6.74513e-08)
(0.000800142 9.30303e-07 6.75737e-08)
(0.00106689 1.46458e-07 1.73905e-07)
(0.000797923 9.85506e-08 6.78184e-08)
(0.000798666 -3.04661e-08 7.21097e-08)
(0.00106446 9.67888e-08 1.86387e-07)
(0.000796612 1.67166e-07 5.02086e-08)
(0.000797199 -8.86846e-08 5.10784e-08)
(0.00106269 1.85535e-07 1.78094e-07)
(0.000794959 2.74503e-07 3.70054e-08)
(0.000795742 1.83684e-07 6.02449e-08)
(0.00106083 2.98443e-07 1.85801e-07)
(0.000793456 4.01003e-07 4.74319e-08)
(0.000794214 4.08341e-07 3.38757e-08)
(0.00105863 5.26818e-07 1.67217e-07)
(0.000791526 3.19243e-07 4.29249e-08)
(0.000792471 -3.05348e-07 8.83751e-08)
(0.00105624 6.22054e-07 1.63401e-07)
(0.00079014 1.03438e-07 3.88084e-08)
(0.000790859 7.07051e-08 3.30548e-08)
(0.00105411 2.40021e-07 1.72423e-07)
(0.000788549 -1.06838e-07 5.54337e-08)
(0.000789294 9.08084e-08 6.63367e-08)
(0.00105208 1.75003e-08 1.74156e-07)
(0.000787595 -3.12338e-07 5.1317e-08)
(0.000787991 2.50582e-07 7.95956e-08)
(0.00105035 -2.99074e-07 1.90211e-07)
(0.000786207 -2.5609e-07 6.09405e-08)
(0.000786993 -1.39322e-07 8.67226e-08)
(0.00104898 -5.41348e-07 1.45357e-07)
(0.000784626 -1.20389e-07 5.99347e-08)
(0.000785523 -9.85424e-08 7.55402e-08)
(0.00104691 -1.74977e-07 1.97114e-07)
(0.000783081 -3.27973e-08 6.199e-08)
(0.000783964 4.52218e-08 5.61091e-08)
(0.00104482 -1.79231e-07 1.78401e-07)
(0.000781766 -4.40392e-08 5.94099e-08)
(0.000782427 3.49862e-07 6.93741e-08)
(0.00104298 9.40335e-08 1.2628e-07)
(0.000780257 -2.53228e-07 6.92269e-08)
(0.00078082 -3.68514e-07 5.4004e-08)
(0.00104103 -1.73153e-07 1.79098e-07)
(0.000778629 -3.04852e-07 5.7583e-08)
(0.000779328 4.31837e-07 7.37633e-08)
(0.00103885 -4.70976e-07 2.52125e-07)
(0.000778339 8.59771e-08 5.04621e-08)
(0.00103746 -3.27453e-07 8.30029e-08)
(-0.00595935 -0.00280498 0.000413422)
(-0.00518288 -0.00207943 0.000389919)
(-0.00316346 -0.0118864 0.000378126)
(-0.00495912 -0.0046637 -0.00252015)
(-0.00193934 0.00489199 0.000292971)
(-0.0077766 0.00285497 -0.000918347)
(0.0103855 -0.00116809 0.00113081)
(-0.00821953 0.00762709 -0.000856229)
(-0.0103109 0.0100487 0.000226243)
(-0.00788318 0.0039981 -0.000146973)
(-0.00447966 -0.00800659 -0.0025471)
(-0.00180409 0.00157334 0.00344742)
(0.00146915 -0.00922876 -0.00203572)
(0.0104173 -0.00583718 -0.00194137)
(-0.000898837 -0.000115619 -0.00220759)
(0.00472664 -0.0106594 -0.00189736)
(-0.00605026 -0.00858191 -0.000310911)
(-0.00293802 -0.00717574 0.000275996)
(-0.00737422 -0.00460435 9.25681e-05)
(-0.00858836 -0.0107549 0.000330381)
(-0.0101811 -0.00753417 -4.09227e-05)
(-0.0167683 -0.010601 0.000231687)
(-0.0114835 -0.0120114 0.000606766)
(-0.00181428 -0.00941008 0.000349789)
(-0.00262461 0.0126898 -0.000407477)
(-0.00389688 0.00252767 0.000262041)
(-0.00140022 0.00239343 -0.000268608)
(0.00258008 -0.0016208 1.27475e-05)
(-0.00133326 0.0017374 0.000752037)
(0.00528157 0.00207577 0.000199388)
(0.0152244 0.00780772 -0.000625632)
(0.00274494 0.00237948 0.000215698)
(0.00466633 -0.000894485 2.31694e-05)
(0.00698777 -0.00147645 0.00125032)
(0.00110104 -1.76292e-05 3.03791e-05)
(0.00113719 9.90539e-05 9.81356e-05)
(0.00077038 -0.000338534 2.57923e-05)
(0.00140484 4.97384e-05 3.31612e-05)
(0.0010583 0.000192832 4.71856e-05)
(0.000415956 -4.12228e-06 2.05688e-06)
(0.000541884 1.68318e-05 -3.1336e-06)
(0.000865582 1.30675e-05 1.88681e-06)
(0.000362227 -3.2567e-05 1.55116e-05)
(0.000781225 -1.10916e-05 9.47565e-06)
(0.00066673 -1.39002e-05 4.03279e-05)
(0.000525159 5.48375e-06 -2.5972e-07)
(0.000400219 1.92668e-06 2.131e-06)
(0.000716908 -5.77808e-06 9.12469e-06)
(0.000615581 -8.74459e-06 -1.87063e-06)
(0.00034254 -2.33288e-06 -1.94433e-06)
(0.000871786 1.52876e-05 -1.37787e-06)
(0.000918124 2.74508e-05 -2.05793e-06)
(0.00123383 2.11993e-05 -1.37006e-06)
(0.000652185 2.22557e-05 -4.39761e-06)
(0.000652392 2.96777e-05 -5.04945e-06)
(0.0010757 3.97853e-05 -5.44179e-06)
(0.00109698 5.47698e-05 -5.93021e-06)
(0.000859403 1.00949e-05 -1.35816e-07)
(0.000850601 2.00334e-05 -3.80373e-07)
(0.00113799 1.53104e-05 8.00524e-08)
(0.000849824 6.12196e-06 1.11346e-07)
(0.000852568 1.22778e-05 1.34511e-07)
(0.00113961 9.03275e-06 2.0303e-07)
(0.000843489 3.69999e-06 6.0029e-08)
(0.00084378 6.88441e-06 2.97534e-08)
(0.00112675 5.73997e-06 2.14289e-07)
(0.000838716 2.16817e-06 4.29446e-08)
(0.000839365 4.9308e-06 4.6256e-08)
(0.00112053 3.19785e-06 1.43683e-07)
(0.000834934 1.34318e-06 5.17005e-08)
(0.000835678 3.04123e-06 5.10882e-08)
(0.00111502 2.02873e-06 1.82851e-07)
(0.000831977 7.65866e-07 5.35463e-08)
(0.000832738 1.88054e-06 5.2664e-08)
(0.00111061 1.21009e-06 1.84888e-07)
(0.000830169 4.57302e-07 4.79e-08)
(0.000830464 8.97234e-07 5.12436e-08)
(0.00110766 6.30511e-07 1.88216e-07)
(0.000827859 3.19758e-07 4.28906e-08)
(0.000828476 9.46716e-07 4.77222e-08)
(0.00110503 4.65359e-07 1.71163e-07)
(0.000825639 1.68904e-07 7.11852e-08)
(0.000826481 6.42028e-07 7.12075e-08)
(0.00110205 3.01558e-07 1.78106e-07)
(0.000823345 1.01044e-07 9.89578e-08)
(0.000824556 7.61105e-07 6.91137e-08)
(0.00109899 7.06943e-08 1.7382e-07)
(0.000822049 1.13005e-07 1.28858e-07)
(0.000822891 -5.07992e-08 6.38123e-08)
(0.00109659 1.27805e-07 1.86999e-07)
(0.000820622 1.17283e-07 1.03735e-07)
(0.000821415 5.23006e-08 1.16867e-07)
(0.00109486 1.32007e-07 1.9674e-07)
(0.000819147 2.17049e-07 9.06647e-08)
(0.000819943 1.16162e-07 5.02574e-08)
(0.00109294 1.58196e-07 1.7785e-07)
(0.000817644 2.82641e-07 2.72394e-08)
(0.00081839 3.26709e-09 8.02565e-08)
(0.001091 4.20656e-07 2.04865e-07)
(0.000815674 1.78177e-07 -1.64167e-08)
(0.000816683 -4.30774e-08 -1.50351e-08)
(0.00108854 3.61771e-07 1.45563e-07)
(0.000814328 5.37267e-08 6.705e-08)
(0.000815124 -1.12797e-07 3.62525e-08)
(0.00108633 1.24538e-07 1.74047e-07)
(0.000812862 -4.6117e-08 7.73719e-08)
(0.000813615 -9.72561e-08 1.2889e-07)
(0.00108453 2.70451e-08 1.82992e-07)
(0.0008113 -8.55635e-08 6.19915e-08)
(0.000812073 7.29537e-08 6.56324e-08)
(0.00108248 -1.03809e-07 1.75321e-07)
(0.000809523 -1.40316e-07 2.8716e-08)
(0.000810448 -1.15707e-07 7.3576e-08)
(0.00108007 -6.75518e-08 2.02525e-07)
(0.000808089 3.64119e-08 1.66773e-08)
(0.000809131 -5.7848e-07 6.03733e-08)
(0.00107806 -2.52502e-07 3.09113e-07)
(0.000806864 4.90944e-07 6.19423e-08)
(0.000807833 -9.35348e-07 3.61364e-08)
(0.00107644 4.17015e-07 1.99255e-07)
(0.000805904 6.73995e-07 7.71309e-08)
(0.000806258 -1.26162e-06 5.23721e-08)
(0.00107479 9.46073e-07 2.14773e-07)
(0.000804618 5.31476e-07 1.88915e-07)
(0.000804835 -1.90091e-06 1.21734e-08)
(0.0010735 8.71823e-07 2.82813e-07)
(0.000802948 3.79953e-07 2.30805e-07)
(0.000803428 4.0919e-07 1.803e-07)
(0.00107159 5.55514e-07 2.03459e-07)
(0.000800452 1.76599e-07 1.18788e-07)
(0.000801596 -4.32209e-08 9.64405e-08)
(0.00106845 4.55637e-07 3.36009e-07)
(0.000799436 6.71611e-08 7.22307e-08)
(0.000800005 3.43717e-07 7.07805e-08)
(0.00106618 1.30633e-08 1.76301e-07)
(0.000797962 1.30559e-07 5.53762e-08)
(0.000798745 -1.03936e-07 4.82589e-08)
(0.00106468 1.52122e-07 1.80439e-07)
(0.000796327 1.04306e-07 6.11118e-08)
(0.000797166 7.52381e-08 1.19973e-07)
(0.00106254 1.80992e-07 1.77792e-07)
(0.000794951 1.13472e-07 5.71233e-08)
(0.000795753 -7.87673e-08 4.90679e-08)
(0.00106055 9.45623e-08 1.85088e-07)
(0.000793365 7.89255e-08 7.4802e-08)
(0.00079417 5.84245e-07 1.76666e-08)
(0.00105862 1.68387e-07 1.72369e-07)
(0.000791668 5.14928e-08 7.85221e-08)
(0.000792437 9.1445e-07 3.15371e-08)
(0.0010563 -1.37986e-08 1.07347e-07)
(0.000790156 1.1398e-07 6.05728e-08)
(0.000790937 6.95099e-08 5.13275e-08)
(0.00105413 1.09322e-07 1.78711e-07)
(0.000788446 2.73691e-07 9.04946e-08)
(0.000789493 2.88015e-07 8.24667e-08)
(0.00105205 1.67007e-07 1.82209e-07)
(0.000787508 4.1123e-07 1.14999e-07)
(0.000788161 7.12943e-07 1.20061e-07)
(0.00105032 5.81111e-07 9.3583e-08)
(0.000786436 3.20731e-07 1.01326e-07)
(0.000786878 -1.22663e-06 6.61645e-08)
(0.00104901 5.78085e-07 2.18066e-07)
(0.000784819 2.39205e-07 7.17206e-08)
(0.000785419 2.20883e-08 1.24713e-08)
(0.00104718 3.67609e-07 1.80117e-07)
(0.000783271 2.88504e-07 6.34892e-08)
(0.000784024 -3.40967e-08 4.81774e-08)
(0.00104518 3.66918e-07 1.88761e-07)
(0.000781487 2.48284e-07 6.39729e-08)
(0.000782375 2.20571e-07 7.73447e-08)
(0.00104292 4.58091e-07 2.14321e-07)
(0.00077988 1.24398e-07 5.85345e-08)
(0.000780664 -4.62888e-08 4.42468e-08)
(0.00104052 2.46667e-07 1.65526e-07)
(0.000778832 8.56095e-08 6.66494e-08)
(0.000779278 -2.0847e-07 5.28541e-08)
(0.0010387 1.24783e-07 1.8527e-07)
(0.000778233 1.23143e-07 6.01166e-08)
(0.00103744 1.15539e-07 1.63671e-07)
(-0.000445743 0.00403596 0.0002695)
(0.00228942 -0.000561219 0.000122116)
(-0.003452 0.00390517 4.77033e-06)
(0.00531413 0.00187128 0.000304011)
(-0.000656622 -0.000198894 0.000472568)
(0.00620035 0.00378795 0.00038051)
(0.000655912 -0.0159741 -0.000355247)
(0.0014717 -0.00463827 0.00173154)
(0.0035802 -0.0111376 0.000171015)
(0.00540109 -0.00199808 0.0012626)
(0.00192341 0.00285471 -0.000186986)
(0.0122608 -0.00326227 0.00198865)
(-0.00302162 -0.00896585 0.00556807)
(0.00503153 0.0185331 -0.00284331)
(0.00848623 -0.00996709 -0.00357796)
(0.00407976 -0.00560151 -0.00014201)
(0.00640365 0.0023923 0.000949783)
(0.010503 -0.00439963 -0.000143854)
(-0.00139048 0.00173338 -0.000139707)
(0.00310511 0.000509028 -0.000484453)
(0.00146289 -0.00355703 0.00345548)
(0.00832573 0.000276628 0.0030209)
(0.000337521 -0.0068106 0.000494266)
(0.00519103 -0.00355454 0.00171948)
(-0.000239757 -0.00558167 0.000941453)
(-0.00664943 0.0092871 0.00072832)
(-0.0171586 -0.00282208 0.00093562)
(-0.00568711 -0.00975429 0.00110005)
(-0.00617979 -0.00322226 0.00316932)
(-0.0152577 -0.00509039 -0.000657046)
(-0.000657759 0.0256394 -0.00224998)
(-0.00397227 -5.18306e-05 -0.00236403)
(-0.0308226 -0.0166291 -0.00016161)
(0.00219987 0.00624019 -0.0056981)
(-0.0222522 0.00631104 -0.00234268)
(0.0029015 0.0175189 -0.0519815)
(-0.0317562 -0.00571872 0.0991726)
(-0.0182434 0.0052553 -0.0157609)
(-0.0129813 -0.00441336 -0.0525623)
(0.0169992 0.00429928 2.62141e-05)
(0.0169992 0.00429928 2.62141e-05)
(0.0169992 0.00429928 2.62141e-05)
(0.0169992 0.00429928 2.62141e-05)
(-0.00209038 0.00314088 -0.000305278)
(-0.0110637 -0.00387751 0.0012851)
(0.000811072 -0.000175272 -0.000339631)
(-0.0108742 0.000164234 -0.000797152)
(-0.00800099 -0.000679465 -0.000799219)
(0.00129041 0.000759212 -5.67632e-05)
(0.000725445 0.00053545 -3.67066e-06)
(0.000915054 3.24339e-05 -2.4946e-05)
(0.00104415 -0.000707925 2.7809e-05)
(0.000571346 0.000564462 2.65008e-05)
(0.00069695 0.00104891 -0.000117938)
(0.000269834 0.000870363 2.37596e-05)
(0.000577564 0.000746936 -1.87181e-05)
(0.00118688 0.000613686 2.28789e-05)
(0.00184647 0.000980015 -5.51915e-05)
(0.000957896 0.00032335 -1.50191e-05)
(0.000803139 0.000416217 8.91765e-05)
(0.00101094 0.000551671 -1.44259e-05)
(0.00093677 0.00025133 8.23324e-05)
(0.00092441 -5.99683e-05 1.35999e-05)
(0.000434558 -3.77903e-06 1.93161e-05)
(0.00049239 -6.05732e-05 3.54975e-05)
(0.000635267 -2.34234e-05 5.72752e-05)
(0.000292071 -8.7237e-06 1.37172e-05)
(0.000858078 2.73289e-05 -1.06098e-06)
(0.000876028 3.36651e-05 -2.2528e-06)
(0.00120758 3.44216e-05 -1.28301e-06)
(0.000632417 2.3272e-05 -4.63671e-06)
(0.000635416 3.88276e-05 -4.91191e-06)
(0.00105178 3.2992e-05 -5.04854e-06)
(0.00106926 6.88821e-05 -3.8265e-06)
(0.000850298 2.01186e-05 -1.10214e-07)
(0.000841366 2.91312e-05 -1.50805e-07)
(0.00112583 3.06934e-05 8.9483e-08)
(0.000844427 1.2444e-05 5.29524e-08)
(0.000842935 1.735e-05 9.59204e-08)
(0.00113074 1.8239e-05 2.03343e-07)
(0.00083938 8.00587e-06 1.5975e-08)
(0.000838208 1.14512e-05 1.64463e-07)
(0.00112121 1.2099e-05 1.67424e-07)
(0.000836015 5.00893e-06 5.4398e-08)
(0.000835602 7.08424e-06 9.96798e-08)
(0.00111631 7.51266e-06 1.89458e-07)
(0.000833281 3.19047e-06 5.20512e-08)
(0.000833394 4.49997e-06 5.24381e-08)
(0.00111237 4.76356e-06 1.83723e-07)
(0.000831029 2.06317e-06 5.03618e-08)
(0.000831322 2.73904e-06 5.29698e-08)
(0.00110916 3.09032e-06 1.8385e-07)
(0.000828783 1.17903e-06 5.10669e-08)
(0.000829354 1.77544e-06 4.87949e-08)
(0.00110619 2.02414e-06 1.82471e-07)
(0.000827062 4.81785e-07 7.60315e-08)
(0.000827602 1.17316e-06 5.37919e-08)
(0.00110359 8.94946e-07 1.8228e-07)
(0.000825393 6.75496e-08 6.91366e-08)
(0.000825962 8.436e-07 7.68024e-08)
(0.0011013 2.75694e-07 1.79632e-07)
(0.00082397 -1.15692e-07 3.39699e-08)
(0.000824328 5.42333e-07 4.45442e-08)
(0.00109927 -1.56775e-07 1.87555e-07)
(0.000822268 -6.08186e-08 5.18041e-08)
(0.00082296 1.5558e-07 1.46223e-08)
(0.00109726 -2.00406e-07 1.82335e-07)
(0.00082073 -1.43414e-08 6.34104e-08)
(0.000821474 1.09904e-07 7.03819e-08)
(0.00109505 -1.25993e-08 1.784e-07)
(0.000819202 -7.73407e-08 3.98396e-08)
(0.000819865 6.18146e-08 5.96307e-08)
(0.00109306 -7.48742e-08 1.8546e-07)
(0.000817436 -9.43424e-08 3.80123e-08)
(0.000818369 7.72976e-07 4.60643e-08)
(0.00109085 -1.82397e-07 1.48704e-07)
(0.000816108 1.50701e-08 3.76178e-08)
(0.00081682 1.39095e-07 7.99668e-08)
(0.00108869 -1.15258e-07 1.51409e-07)
(0.000814404 1.37506e-07 9.80633e-08)
(0.000815277 6.81523e-08 4.67456e-08)
(0.00108675 1.14821e-07 1.84316e-07)
(0.000812792 2.09513e-07 1.17171e-07)
(0.000813704 -7.23153e-08 1.08054e-07)
(0.00108452 2.0439e-07 1.87188e-07)
(0.000811317 2.91344e-07 7.72144e-08)
(0.000812174 -5.24854e-08 6.65291e-08)
(0.00108239 3.29757e-07 1.85516e-07)
(0.00080991 5.50606e-07 1.05238e-07)
(0.00081077 -5.26838e-07 6.03775e-08)
(0.00108044 4.85287e-07 1.99608e-07)
(0.000808975 7.15544e-07 7.984e-08)
(0.000809334 -2.84018e-06 2.56374e-07)
(0.001079 1.10595e-06 2.88326e-07)
(0.000807175 7.19691e-07 2.6561e-08)
(0.000807835 2.97761e-07 3.27309e-08)
(0.00107719 9.22945e-07 1.17906e-07)
(0.000805246 7.42735e-07 -1.25728e-08)
(0.000806283 -3.47032e-07 3.72398e-08)
(0.0010746 1.05394e-06 1.51538e-07)
(0.000803541 4.43329e-07 3.50605e-09)
(0.000804458 2.20702e-07 -8.9749e-10)
(0.00107214 9.8143e-07 4.5919e-08)
(0.000802349 2.51138e-08 4.59622e-08)
(0.000802904 -2.78063e-08 2.01481e-07)
(0.00107028 2.53901e-07 1.81623e-07)
(0.000800799 7.55847e-09 4.84413e-08)
(0.000801574 1.12162e-07 4.99197e-08)
(0.00106848 -1.5645e-07 1.71187e-07)
(0.000799505 8.85116e-08 4.68157e-08)
(0.000800106 3.42425e-07 5.8615e-08)
(0.00106651 1.90196e-07 1.59408e-07)
(0.000797912 4.80832e-09 1.12834e-07)
(0.00079864 -5.17937e-09 4.65616e-08)
(0.00106467 4.42202e-08 1.78656e-07)
(0.00079651 1.65529e-08 1.07951e-07)
(0.000797181 8.91496e-08 8.10821e-08)
(0.00106262 -3.91471e-08 1.67715e-07)
(0.000795123 -1.58441e-07 9.62088e-09)
(0.000795535 -6.35224e-08 4.69483e-08)
(0.00106081 4.67387e-08 1.66222e-07)
(0.000793165 -3.14018e-07 -2.56026e-08)
(0.000793977 2.66562e-06 5.53533e-08)
(0.0010585 -5.10157e-07 6.89461e-08)
(0.0007917 -1.17246e-07 4.33633e-09)
(0.000792684 -5.74935e-07 5.26268e-09)
(0.00105617 -3.67035e-07 2.81382e-07)
(0.000790326 9.93467e-08 7.32118e-08)
(0.000791208 -5.73597e-08 4.19023e-08)
(0.00105434 2.58586e-08 1.75278e-07)
(0.00078904 3.33081e-07 1.12022e-07)
(0.000789784 -3.11461e-07 2.33934e-07)
(0.00105266 2.8549e-07 2.01573e-07)
(0.000787624 4.56001e-07 7.12432e-08)
(0.000788312 -1.05775e-06 6.08318e-08)
(0.00105086 6.57426e-07 2.98261e-07)
(0.000785861 2.65568e-07 -2.26735e-08)
(0.000786638 -7.70597e-07 4.17463e-08)
(0.00104871 5.75621e-07 1.68809e-07)
(0.000784607 6.40915e-08 -1.10828e-08)
(0.000785166 1.73613e-07 1.72353e-09)
(0.00104664 1.5234e-07 1.44986e-07)
(0.000783294 -2.00641e-08 6.20241e-08)
(0.000783918 -1.83839e-08 4.45671e-08)
(0.00104493 4.02949e-08 1.60465e-07)
(0.000781325 4.71152e-10 5.76287e-08)
(0.0007824 -4.65318e-07 2.37127e-08)
(0.00104282 -8.66702e-08 2.71682e-07)
(0.000780131 1.66889e-07 3.85638e-08)
(0.000780872 -3.13955e-07 2.26551e-08)
(0.00104061 9.16472e-08 1.70891e-07)
(0.000778521 2.46917e-07 4.63191e-08)
(0.000779374 3.33253e-08 6.84101e-08)
(0.00103868 3.47956e-07 1.72144e-07)
(0.000777925 3.56059e-07 7.16004e-08)
(0.00103716 3.06392e-07 1.27024e-07)
(0.00253795 -0.00303714 0.000374224)
(-0.0068564 0.00152777 0.000781163)
(0.00666072 -0.00459374 -0.000142746)
(-0.00217574 -0.0377105 0.000746679)
(0.00231333 -0.00734939 0.00163292)
(-0.00217441 -0.00832221 0.00232877)
(-0.0312583 0.00331648 0.00134326)
(-0.00655773 0.00236654 0.00173415)
(-0.0110886 0.00270177 0.00311966)
(-0.00377434 -0.0177704 1.02686e-05)
(-0.0083469 -0.019192 0.00090195)
(-0.00100462 -0.00629345 0.0017963)
(-0.000135641 0.00284351 -0.000460498)
(0.00261757 0.00728301 0.000449417)
(0.000984253 -0.0117301 -0.000558722)
(0.00331775 -0.00627976 -0.000218438)
(0.0113467 0.00909566 0.00158136)
(0.0193628 -0.00566308 0.00438435)
(0.00113615 -0.00697885 -0.000816332)
(0.00963887 0.00514214 -0.00062608)
(0.00302948 0.00467809 -0.000426929)
(0.0034216 0.00333861 -0.00137768)
(0.00310603 -0.00241316 -0.000628027)
(-0.000402942 -0.00768554 -0.000150876)
(0.00559202 0.00864717 0.000466964)
(-0.000588654 -0.00175473 5.21353e-05)
(0.00390215 0.00305914 0.00126773)
(0.0130297 0.0076803 8.40246e-05)
(-0.00935657 0.015632 0.0011071)
(-0.000292955 0.000628681 0.000203705)
(0.00237448 0.00211904 0.000476552)
(-0.00447055 0.00883865 0.00041578)
(-0.00321052 -0.00683987 3.25189e-05)
(-0.00470546 -0.00580808 -0.000445337)
(-0.00140375 -0.0038612 -0.000180768)
(-0.00172596 -0.00284148 -8.26138e-05)
(-0.00625663 -0.00875082 -0.000547348)
(0.000255767 -0.00090583 -1.37738e-05)
(0.000551524 -0.000428922 -2.34377e-05)
(0.00105455 -0.000821181 2.36465e-06)
(-0.000289433 -0.00182133 -3.30637e-05)
(9.17669e-05 -0.00106406 3.11249e-05)
(-0.000389198 -0.00210482 -2.82248e-05)
(-2.83977e-06 -0.00197945 3.41811e-05)
(0.000681515 -0.00104305 -1.65959e-05)
(0.000692055 -0.000537525 1.15498e-05)
(0.000589242 -0.000643006 1.53902e-05)
(0.000813749 -0.000741612 1.0195e-05)
(0.00140053 9.22206e-05 8.16995e-05)
(0.000592175 -0.00012943 3.60573e-05)