/*--------------------------------*- C++ -*----------------------------------*\
| =========                 |                                                 |
| \\      /  F ield         | OpenFOAM: The Open Source CFD Toolbox           |
|  \\    /   O peration     | Version:  5.0                                   |
|   \\  /    A nd           | Web:      www.OpenFOAM.org                      |
|    \\/     M anipulation  |                                                 |
\*---------------------------------------------------------------------------*/
FoamFile
{
    version     2.0;
    format      ascii;
    class       volScalarField;
    location    "3.2";
    object      alpha.water;
}
// * * * * * * * * * * * * * * * * * * * * * * * * * * * * * * * * * * * * * //

dimensions      [0 0 0 0 0 0 0];

internalField   nonuniform List<scalar> 
8024
(
1.03471
1.04417
0.938462
0.933295
0.938283
0.994013
0.0087497
-1.27779e-19
-3.80794e-21
9.17258e-18
1.36144e-18
1.87593e-20
1.27409e-23
7.33929e-28
1.63395e-31
6.78269e-35
2.80449e-38
1.21432e-41
5.31641e-45
2.10216e-48
1.00651e-51
4.26758e-55
1.94269e-58
7.33416e-62
3.85821e-65
3.36396e-68
1.39318e-71
2.70415e-75
3.78651e-78
1.36516e-81
1.683e-84
3.07655e-88
8.34356e-91
2.29162e-93
6.67777e-97
5.62002e-100
2.64522e-103
9.39428e-106
1.13893e-109
9.92638e-114
2.35376e-116
3.98458e-119
5.06458e-122
1.51237e-124
2.91171e-128
2.32872e-131
3.58139e-135
4.93982e-139
1.38751e-140
6.06099e-144
1.01114
1.05778
0.993912
1.04972
1.02434
1
0.124626
-2.88275e-17
-2.77794e-19
7.32579e-22
1.02325e-19
4.36054e-21
4.69035e-24
2.09459e-28
3.50844e-32
1.40596e-35
5.88722e-39
2.51957e-42
1.06117e-45
4.30768e-49
1.81341e-52
7.70207e-56
3.95483e-59
1.65363e-62
6.23654e-66
4.00319e-69
1.53017e-72
5.23628e-76
1.96563e-79
1.71569e-82
7.90025e-86
2.1135e-88
3.99529e-92
1.07327e-94
2.46255e-98
3.02349e-101
1.30206e-104
8.87971e-109
3.44319e-110
2.67074e-113
3.85767e-117
4.55759e-120
5.85256e-124
8.55566e-128
2.75597e-130
8.27097e-134
5.19658e-137
1.15709e-140
3.30665e-144
5.08804e-145
1.02738
1.01246
1.04526
0.994618
1.02037
1.0037
0.941504
-8.30978e-17
-4.25958e-19
1.51458e-16
1.51422e-17
8.69547e-20
2.72229e-23
6.97228e-27
1.58677e-30
5.0488e-34
2.09174e-37
9.13608e-41
4.03282e-44
1.68572e-47
7.43175e-51
3.15318e-54
1.37241e-57
5.94061e-61
2.83891e-64
1.49099e-67
6.22411e-71
1.86185e-74
5.03056e-77
6.82253e-80
3.77145e-84
8.29243e-88
4.01913e-89
3.23991e-92
2.70704e-96
1.41973e-99
6.35245e-103
6.62056e-107
1.04199e-108
8.33216e-112
1.96797e-115
5.88817e-119
3.35575e-121
5.06788e-125
3.87081e-129
1.1767e-132
1.27588e-134
1.57436e-137
7.64614e-142
3.59009e-145
1.00047
1.01804
1.01017
1.02338
1.06118
1
1.00003
-2.5558e-15
-5.43573e-18
-2.01948e-31
4.4279e-18
3.63118e-19
1.56868e-21
2.31514e-25
1.64521e-29
5.60637e-33
2.33231e-36
1.05045e-39
4.19871e-43
1.73904e-46
7.55063e-50
3.05237e-53
2.23515e-56
8.45987e-60
3.48276e-63
1.85648e-66
4.42064e-70
2.34721e-72
3.41007e-76
5.09468e-80
4.73411e-82
6.59109e-85
6.57216e-89
1.5939e-92
7.35599e-95
1.2043e-98
6.70709e-102
6.60967e-105
3.89646e-107
1.6363e-110
2.15813e-114
9.20908e-117
2.28038e-120
1.39813e-123
3.22222e-126
1.36511e-129
7.77915e-134
5.02424e-137
5.31165e-140
1.68386e-142
1.02121
1.02207
0.982265
1.02734
1.01051
1.00622
1.00093
6.13415e-05
-1.34397e-18
-8.81453e-22
2.1923e-17
2.58408e-18
2.11209e-20
6.50724e-24
3.43684e-28
1.03306e-31
4.1195e-35
1.74861e-38
7.32249e-42
3.36525e-45
1.27169e-48
7.74413e-52
2.33165e-55
1.12179e-58
5.35989e-62
3.94779e-65
1.72463e-68
1.25792e-71
4.00823e-74
1.04095e-77
1.00001e-80
1.12984e-84
5.87144e-87
7.17874e-91
7.06687e-95
7.69737e-98
7.48666e-100
2.96017e-103
1.28941e-107
9.10867e-110
1.33054e-113
2.67898e-117
5.65242e-119
9.18957e-122
2.23964e-125
2.94764e-129
3.85619e-131
1.73657e-134
1.5728e-137
2.36615e-141
1.00929
0.953924
1.02818
1.03282
1.00077
1
1.0012
0.00953202
-3.3106e-18
-2.05989e-22
1.71241e-17
2.03664e-18
1.72196e-20
5.62013e-24
2.90915e-28
8.39082e-32
3.46999e-35
1.73388e-38
6.59989e-42
4.47923e-45
1.22181e-48
4.81375e-52
2.00076e-55
1.12654e-58
3.74822e-62
4.75036e-64
1.34446e-67
1.05585e-71
4.59364e-74
1.14514e-76
1.08165e-79
5.35563e-83
3.16514e-87
1.74386e-90
2.21269e-93
4.64179e-97
3.46122e-100
3.92517e-103
2.83655e-107
1.68723e-109
3.15882e-112
1.07054e-114
2.57496e-118
4.42082e-122
7.01192e-126
2.31857e-128
1.78292e-132
4.61695e-136
1.41767e-139
3.38235e-143
1.03401
1.00244
1.00594
0.982989
0.999266
1.00006
1.00337
-4.29354e-15
-1.94547e-18
-2.83468e-22
4.20429e-18
3.38682e-19
1.4065e-21
1.99529e-25
1.4796e-29
5.0685e-33
2.10829e-36
8.9851e-40
3.89467e-43
1.62593e-46
1.12317e-49
2.98521e-53
1.42158e-56
6.71678e-60
6.56287e-63
1.06412e-66
3.79841e-70
4.51274e-73
2.70396e-75
5.29989e-79
3.87391e-83
1.1933e-86
4.71687e-90
1.64413e-92
7.90035e-96
1.34169e-98
3.30206e-102
1.15189e-104
8.55984e-108
5.78901e-111
5.88513e-115
1.48821e-117
5.58618e-121
1.51995e-124
4.23744e-127
7.33138e-131
7.64226e-133
1.62329e-136
8.20031e-141
2.90452e-142
1.06483
1.0177
1.00373
1.02818
1.04697
1.0336
1.00017
-8.08608e-17
-3.26224e-19
1.40785e-16
1.51863e-17
8.93191e-20
2.82399e-23
6.88053e-27
1.57956e-30
5.13379e-34
2.1305e-37
9.19244e-41
4.05857e-44
2.00472e-47
7.59195e-51
3.73348e-54
1.66872e-57
5.88669e-61
2.45324e-64
2.52294e-67
2.22121e-70
7.87366e-74
9.6015e-78
2.94062e-80
3.8746e-84
1.01482e-86
1.111e-89
1.99535e-93
1.40282e-96
3.26181e-99
2.71646e-103
9.83649e-106
6.98796e-109
9.16151e-112
3.78476e-116
1.89406e-118
1.49693e-121
7.36269e-125
7.85495e-129
7.79357e-133
2.64253e-136
1.02815e-139
4.03702e-143
2.93038e-145
1.03204
1.03685
1.00501
0.952376
1.00767
0.992272
0.870256
-3.03339e-20
1.52877e-15
1.1628e-17
1.01581e-19
4.90588e-21
1.42483e-23
1.25534e-27
1.12118e-31
4.19447e-35
1.7509e-38
7.31525e-42
3.05302e-45
1.26887e-48
5.25246e-52
2.18276e-55
9.04726e-59
3.74103e-62
1.97432e-65
6.59883e-69
2.6614e-72
1.11511e-75
4.48344e-79
2.04239e-82
8.4403e-85
1.73845e-88
3.87046e-92
8.78777e-96
6.28316e-98
1.60697e-101
1.00067e-104
1.08001e-108
2.59391e-112
2.30071e-114
3.31569e-117
6.15195e-120
1.55452e-123
1.73244e-127
6.0611e-131
1.13756e-133
3.23926e-136
4.25853e-139
6.56496e-142
3.16519e-145
1.06197
1.0615
1.01046
1.01124
0.993963
1.00004
0.127839
-6.7551e-20
1.96449e-23
7.99595e-18
1.35187e-18
2.43934e-20
2.63142e-23
1.96509e-27
3.43282e-31
1.36438e-34
5.72187e-38
2.4198e-41
1.02223e-44
4.51989e-48
1.82304e-51
7.63703e-55
3.17463e-58
1.31367e-61
6.05985e-65
2.58067e-68
1.22205e-71
5.22652e-75
2.12758e-77
6.17402e-81
6.33908e-84
3.60182e-87
2.42014e-90
1.30393e-93
1.37113e-97
1.16299e-100
2.86065e-103
6.29295e-107
3.78597e-109
7.35971e-113
6.332e-117
2.90383e-120
3.11407e-122
1.24615e-125
6.96961e-129
9.00152e-132
2.01419e-135
2.64533e-138
2.63001e-142
4.51452e-145
1.04499
1.14353
0.953372
0.969603
0.994098
1.00106
0.0150477
1.81336e-14
2.22898e-17
2.00044e-17
3.87254e-18
1.54521e-19
7.543e-22
3.3975e-25
5.42299e-29
2.93535e-32
2.20848e-35
1.60916e-38
1.14763e-41
8.16047e-45
5.79873e-48
4.1111e-51
2.90626e-54
2.05049e-57
1.44316e-60
1.01302e-63
7.09879e-67
4.96213e-70
3.45892e-73
2.4059e-76
1.66892e-79
1.15457e-82
7.97536e-86
5.49753e-89
3.78285e-92
2.59747e-95
1.77807e-98
1.21358e-101
8.26986e-105
5.62758e-108
3.82086e-111
2.58899e-114
1.75004e-117
1.17999e-120
7.94166e-124
5.33091e-127
3.57027e-130
2.3885e-133
1.59398e-136
6.29173e-140
1.07203
1
1.0123
1.01298
1.01666
1.0017
0.130717
7.58654e-12
7.68266e-15
6.87928e-18
1.12144e-18
3.33513e-20
7.42161e-23
1.34063e-26
2.96667e-30
2.09751e-33
1.54929e-36
1.10455e-39
7.83007e-43
5.53937e-46
3.91709e-49
2.76221e-52
1.94514e-55
1.36682e-58
9.58444e-62
6.70591e-65
4.68543e-68
3.26508e-71
2.26941e-74
1.57463e-77
1.09412e-80
7.56761e-84
5.20993e-87
3.58806e-90
2.46685e-93
1.69214e-96
1.15948e-99
7.90826e-103
5.39266e-106
3.66654e-109
2.48948e-112
1.68507e-115
1.13954e-118
7.71407e-122
5.18262e-125
3.48295e-128
2.33694e-131
1.56446e-134
1.0452e-137
4.14269e-141
1.05593
1.00097
0.918
1.04227
1.03563
1.00848
0.938125
2.21989e-11
8.50012e-16
1.39283e-15
2.59959e-16
5.14841e-18
6.02182e-21
6.03391e-25
1.87885e-28
1.40509e-31
1.01163e-34
7.09748e-38
4.96749e-41
3.47115e-44
2.42176e-47
1.68642e-50
1.17159e-53
8.12605e-57
5.62161e-60
3.8806e-63
2.67503e-66
1.83904e-69
1.26166e-72
8.65112e-76
5.91961e-79
4.04295e-82
2.75769e-85
1.87581e-88
1.27144e-91
8.61256e-95
5.82376e-98
3.92876e-101
2.64622e-104
1.7779e-107
1.19169e-110
7.97511e-114
5.32898e-117
3.5546e-120
2.36775e-123
1.57428e-126
1.04419e-129
6.9111e-133
4.56398e-136
1.7866e-139
1.03652
0.978119
1.02391
1.07877
1.04011
0.997316
1.00042
4.51485e-08
2.19747e-14
4.6536e-17
3.10189e-17
3.80145e-18
5.18208e-20
4.66433e-23
4.96141e-27
1.8591e-30
1.39174e-33
1.00173e-36
7.04125e-40
4.94101e-43
3.46382e-46
2.42226e-49
1.68916e-52
1.17774e-55
8.18075e-59
5.67241e-62
3.92704e-65
2.71466e-68
1.87511e-71
1.28848e-74
8.84595e-78
6.06319e-81
4.14364e-84
2.82757e-87
1.92656e-90
1.30984e-93
8.88915e-97
6.01966e-100
4.06631e-103
2.74176e-106
1.84493e-109
1.24473e-112
8.33823e-116
5.5839e-119
3.71957e-122
2.47949e-125
1.64912e-128
1.09522e-131
7.25695e-135
2.84935e-138
1.04399
1.02703
0.964511
0.993513
0.995968
1.0097
1.00137
0.000294118
1.3535e-14
2.94127e-16
2.76412e-16
5.34489e-17
1.29349e-18
2.04393e-21
2.49779e-25
6.41487e-29
4.69834e-32
3.4068e-35
2.39345e-38
1.67534e-41
1.1723e-44
8.18737e-48
5.70201e-51
3.96622e-54
2.75219e-57
1.90516e-60
1.31706e-63
9.08506e-67
6.25027e-70
4.29221e-73
2.94164e-76
2.0112e-79
1.37318e-82
9.35054e-86
6.35361e-89
4.31145e-92
2.91888e-95
1.97106e-98
1.32883e-101
8.94449e-105
6.00928e-108
4.03142e-111
2.69773e-114
1.80075e-117
1.20004e-120
7.98237e-124
5.29756e-127
3.51056e-130
2.32153e-133
9.09185e-137
1.08842
1.02734
1.02069
1.01914
1.00039
0.999994
1.00223
0.0164856
1.77089e-14
5.10955e-16
4.95555e-16
1.0442e-16
2.70963e-18
4.40035e-21
5.2367e-25
1.31455e-28
9.629e-32
6.97651e-35
4.89861e-38
3.42607e-41
2.39367e-44
1.6701e-47
1.1625e-50
8.07574e-54
5.59699e-57
3.86942e-60
2.67315e-63
1.84263e-66
1.26701e-69
8.69651e-73
5.95156e-76
4.06268e-79
2.77186e-82
1.8872e-85
1.28129e-88
8.686e-92
5.87541e-95
3.96591e-98
2.67336e-101
1.79825e-104
1.20711e-107
8.08984e-111
5.4089e-114
3.60678e-117
2.40134e-120
1.59536e-123
1.05746e-126
7.00343e-130
4.63166e-133
1.81446e-136
1.03293
0.99492
1.01885
0.995473
1.02076
1.00962
1.00443
1.10177e-06
1.68265e-14
3.34465e-17
2.1812e-17
2.51452e-18
3.34979e-20
3.14406e-23
3.57619e-27
1.32069e-30
9.76905e-34
7.01567e-37
4.92187e-40
3.45344e-43
2.43856e-46
1.70285e-49
1.18121e-52
8.26037e-56
5.79483e-59
3.96791e-62
2.74406e-65
1.89735e-68
1.3099e-71
9.12828e-75
6.1942e-78
4.23988e-81
2.90437e-84
1.9835e-87
1.36193e-90
9.20721e-94
6.24445e-97
4.24616e-100
2.87731e-103
1.93085e-106
1.29982e-109
8.74301e-113
5.86352e-116
3.9297e-119
2.62152e-122
1.74724e-125
1.17407e-128
7.73321e-132
5.13185e-135
2.13801e-138
1.02726
1.01024
1.00853
1.02154
1.04301
1.02742
1.00057
4.98918e-10
8.6047e-16
1.48242e-15
3.25694e-16
7.4923e-18
1.03135e-20
1.12244e-24
3.12299e-28
2.31787e-31
1.67387e-34
1.17513e-37
8.22556e-41
5.74995e-44
4.01381e-47
2.79543e-50
1.94223e-53
1.34724e-56
9.32556e-60
6.43949e-63
4.43801e-66
3.05142e-69
2.09305e-72
1.43464e-75
9.82002e-79
6.70569e-82
4.56968e-85
3.10607e-88
2.10641e-91
1.42681e-94
9.64353e-98
6.50276e-101
4.37979e-104
2.94288e-107
1.97253e-110
1.32003e-113
8.81672e-117
5.87577e-120
3.91007e-123
2.59652e-126
1.71925e-129
1.13698e-132
7.51255e-136
2.94195e-139
1.03686
1.04415
0.969776
0.960615
1
0.993876
0.870437
1.08492e-12
9.5749e-14
1.94251e-15
1.5138e-18
1.29266e-20
1.99034e-23
3.77463e-27
1.16279e-30
8.39216e-34
6.2017e-37
4.42583e-40
3.14318e-43
2.23236e-46
1.58818e-49
1.12703e-52
7.98356e-56
5.63419e-59
3.99209e-62
2.80525e-65
1.96319e-68
1.37601e-71
9.63801e-75
6.71365e-78
4.6979e-81
3.25009e-84
2.25627e-87
1.55662e-90
1.07476e-93
7.40423e-97
5.09026e-100
3.49217e-103
2.38924e-106
1.63335e-109
1.11327e-112
7.57395e-116
5.14851e-119
3.48328e-122
2.35751e-125
1.595e-128
1.07154e-131
7.20501e-135
4.84342e-138
1.92204e-141
1.04979
1.03497
0.982261
1.0691
1.01683
0.99923
0.135119
5.92036e-14
7.73447e-17
1.54611e-17
2.13593e-18
6.78779e-20
2.9697e-22
1.2717e-25
2.20962e-29
1.24991e-32
9.43296e-36
6.89315e-39
4.93634e-42
3.52427e-45
2.51292e-48
1.78721e-51
1.26748e-54
8.97343e-58
6.33645e-61
4.46253e-64
3.13637e-67
2.19917e-70
1.53852e-73
1.07385e-76
7.4758e-80
5.18971e-83
3.59351e-86
2.48362e-89
1.71244e-92
1.17884e-95
8.09439e-99
5.54275e-102
3.78709e-105
2.58331e-108
1.75811e-111
1.19403e-114
8.09128e-118
5.46922e-121
3.6898e-124
2.48316e-127
1.66753e-130
1.11855e-133
7.48098e-137
2.95805e-140
1.00912
1.12543
0.975448
1.03188
0.993019
1.00841
0.0150403
-1.24374e-19
-4.34366e-21
4.31377e-18
6.7032e-19
1.03435e-20
8.58975e-24
5.53117e-28
1.12025e-31
4.73554e-35
1.89759e-38
8.1183e-42
3.54199e-45
2.14243e-48
7.64512e-52
3.3609e-55
1.52448e-58
5.32408e-62
3.32809e-65
3.77155e-68
1.11612e-71
4.06826e-75
4.39521e-78
1.8172e-81
1.3015e-83
8.82809e-88
5.19317e-91
1.7011e-93
7.48199e-97
2.6957e-100
3.49854e-103
1.97438e-106
1.20081e-110
2.98353e-112
1.48686e-115
8.12325e-120
4.0086e-122
3.69152e-126
2.64082e-129
1.94121e-131
4.51151e-135
3.57599e-138
4.83321e-141
8.69507e-144
1.07396
0.72186
1.01905
1.02908
1.01269
1.001
0.129435
-3.26553e-17
-3.01422e-19
7.28547e-22
1.18453e-19
5.13898e-21
5.75125e-24
2.60313e-28
4.25823e-32
1.70288e-35
7.12068e-39
3.01512e-42
1.27135e-45
5.21079e-49
2.30541e-52
9.29062e-56
4.1254e-59
1.71152e-62
7.29629e-66
3.43047e-69
1.53867e-72
5.56865e-76
1.7032e-78
4.41518e-82
2.66273e-85
4.75555e-88
5.41511e-91
9.19655e-95
6.47537e-98
4.0359e-101
8.60226e-105
1.48262e-108
1.0131e-109
1.20922e-112
1.07799e-116
2.07138e-120
1.09836e-123
9.18296e-126
2.68443e-129
2.66272e-133
5.72322e-136
4.76766e-140
1.58195e-143
2.75378e-145
1.03736
1.07856
1.03378
1.05557
1.06133
1.02218
0.93827
8.29212e-12
-4.20911e-19
1.49921e-16
1.51307e-17
8.8392e-20
2.98354e-23
8.53194e-27
1.9147e-30
5.92365e-34
2.44959e-37
1.08664e-40
4.72882e-44
1.95701e-47
8.84121e-51
3.62851e-54
1.9677e-57
7.25524e-61
4.00013e-64
1.29772e-67
6.74037e-71
2.18171e-74
1.15631e-77
3.38128e-80
3.35081e-84
8.08627e-88
1.6186e-90
4.37674e-93
8.84044e-97
1.30575e-99
4.8485e-103
1.8038e-106
1.81922e-109
2.82365e-112
4.80208e-115
2.98642e-119
3.86164e-122
3.74918e-125
4.64787e-129
1.02092e-132
2.0394e-134
1.72505e-137
3.56749e-141
1.00561e-143
1.03648
1.0131
0.939492
1.02521
0.90197
1
1.00044
2.8041e-08
-4.8134e-18
0
4.57942e-18
3.75342e-19
1.62056e-21
2.38516e-25
1.69022e-29
5.75935e-33
2.39644e-36
1.02589e-39
4.24771e-43
1.80662e-46
7.51831e-50
3.09801e-53
1.41709e-56
9.45556e-60
2.72961e-63
1.67376e-66
4.26589e-70
4.00565e-72
1.85791e-75
1.15853e-79
3.83959e-82
2.08874e-85
3.56671e-89
8.53375e-93
8.89175e-96
3.52957e-99
6.18903e-102
8.23774e-105
4.36666e-109
9.40472e-111
3.72226e-114
4.94211e-117
4.86054e-120
3.06888e-123
2.91898e-126
1.22032e-129
7.02155e-133
3.26929e-137
7.80644e-141
3.26712e-144
1.04647
1.07037
0.950414
0.997981
0.966259
1.01574
1.00133
0.000272956
-1.44453e-18
-7.98934e-22
2.26183e-17
2.67871e-18
2.19326e-20
6.73502e-24
3.55755e-28
1.03706e-31
4.24178e-35
1.78121e-38
8.00291e-42
3.31408e-45
1.29121e-48
5.56163e-52
2.86392e-55
1.04376e-58
5.24723e-62
8.91263e-65
1.2032e-68
3.27147e-72
2.48426e-75
1.08229e-77
4.89294e-81
3.74787e-85
4.66541e-87
1.0587e-90
2.62267e-93
1.76721e-97
5.7548e-100
2.5891e-103
1.18894e-105
3.83726e-109
3.07153e-113
3.59876e-115
1.44705e-118
2.34302e-122
1.98762e-125
1.893e-129
6.19099e-131
2.51318e-134
9.35891e-138
2.27078e-140
1.01067
0.990154
1.0043
1.02455
1.02097
1.01177
1.00165
0.0159183
-3.02321e-18
-2.14881e-22
1.75496e-17
2.09628e-18
1.77083e-20
5.75294e-24
2.97565e-28
8.6266e-32
3.56003e-35
1.54171e-38
6.49768e-42
6.49676e-45
1.36913e-48
8.82545e-52
3.4593e-55
1.23302e-58
1.14393e-61
1.75961e-65
1.14472e-68
2.86697e-72
1.10617e-75
5.27024e-77
5.11304e-80
3.43612e-83
2.718e-87
3.37312e-90
3.04686e-94
7.63033e-97
6.3913e-100
4.84263e-103
2.74346e-107
4.85866e-109
2.52041e-112
5.37955e-116
1.80358e-118
1.10251e-121
2.58233e-125
1.51628e-129
1.45242e-132
2.7069e-134
7.16035e-138
2.21057e-142
1.03138
1.02272
0.99978
1
1.29558
1.01813
1.0043
8.97465e-07
-2.0497e-18
-2.48684e-22
4.08139e-18
3.28797e-19
1.3641e-21
1.93708e-25
1.44152e-29
4.93734e-33
2.05339e-36
8.93613e-40
3.74332e-43
1.58456e-46
1.16064e-49
3.11702e-53
1.24942e-56
5.46583e-60
3.42807e-63
2.90648e-66
5.5901e-70
3.08992e-73
2.08456e-75
4.87687e-79
3.50022e-83
1.46653e-85
1.92023e-89
1.25052e-92
4.78387e-95
1.22345e-98
1.27213e-102
8.72391e-105
2.10621e-108
1.17252e-111
7.67111e-115
1.04257e-118
1.05038e-120
2.14715e-124
2.02636e-127
9.30765e-132
2.19322e-135
8.59327e-139
4.47835e-142
5.57519e-142
0.998748
1.00498
1.00397
0.994836
1.03772
1.01546
1.00053
2.49339e-10
-2.79741e-19
1.3571e-16
1.54069e-17
8.76304e-20
2.61562e-23
6.93058e-27
1.57781e-30
5.04766e-34
2.09752e-37
9.02303e-41
4.07359e-44
1.82094e-47
7.4061e-51
3.64903e-54
1.86164e-57
5.79286e-61
5.93923e-64
1.56893e-67
1.96197e-70
1.8294e-73
1.56199e-77
2.35161e-80
2.6679e-84
2.33072e-87
1.72488e-89
5.86446e-93
4.88282e-97
1.11498e-99
1.40371e-102
2.39431e-106
6.03036e-109
2.04869e-111
4.29866e-115
1.12083e-117
2.06471e-121
2.94769e-125
1.19841e-128
1.75267e-132
6.04741e-136
2.36223e-139
9.27739e-143
3.07625e-145
1.04194
1.02371
0.998809
0.983047
0.996342
0.998724
0.870077
3.83741e-13
1.70447e-15
1.34658e-17
9.72365e-20
4.6109e-21
1.32376e-23
1.15954e-27
1.04453e-31
3.91228e-35
1.6325e-38
6.80925e-42
2.84139e-45
1.18357e-48
4.8962e-52
2.03691e-55
8.40771e-59
3.491e-62
1.42983e-65
6.41516e-69
2.47536e-72
1.01789e-75
4.05015e-79
2.97434e-82
5.41954e-85
1.19871e-88
1.42616e-91
9.06145e-95
6.71781e-98
2.32911e-101
7.00275e-105
6.82865e-108
5.92535e-112
3.44039e-114
5.76535e-118
7.53476e-122
7.65153e-124
1.13366e-126
6.84281e-130
1.79633e-133
1.24239e-136
1.18834e-139
7.25907e-142
3.98966e-145
1.05827
1.03604
1.02297
1.01431
1.01639
0.998556
0.135797
-5.65559e-20
2.08102e-23
5.87044e-18
9.8379e-19
1.7543e-20
1.91098e-23
1.45046e-27
2.52352e-31
1.001e-34
4.20835e-38
1.79863e-41
7.53702e-45
3.16152e-48
1.34498e-51
5.706e-55
2.33896e-58
9.89785e-62
4.70817e-65
2.2642e-68
1.09284e-71
3.56613e-75
2.39752e-78
2.53855e-81
3.15761e-85
4.5694e-87
1.44975e-90
1.021e-94
6.00531e-98
2.72839e-100
1.77454e-103
2.05227e-107
3.84432e-109
1.47777e-112
4.94531e-116
1.24484e-118
4.41031e-122
5.65134e-126
5.41774e-129
9.96639e-132
5.81039e-135
4.32341e-138
3.858e-142
3.22307e-145
0.59292
0.972178
0.671116
1.00003
0.591904
0.964945
0.670873
0.854269
1.00685
1.00013
1
0.85411
1.00507
1.00027
1.00041
1.00121
1.00024
1.00331
1.00038
1.01973
1.0004
0.999865
0.999976
1.00172
0.999209
1.00007
0.997841
1.00206
1.00323
1.00005
1.0034
1.00899
1.00351
1.00219
1.00358
1.00294
1.00034
1.00536
0.999994
1.00295
0.996366
1.00531
1.00468
1.00058
1.003
1.00183
1.00634
1.00073
1.00328
1.0014
1.0217
1.00003
1.03004
1.00172
1.0212
1.00007
1.00001
0.984632
0.927246
1
1
0.993594
0.923824
0.846547
0.995313
0.543884
0.997779
0.846772
1.00066
0.545435
0.591245
0.952549
0.671484
1.00499
0.587374
0.993778
0.671488
0.853684
1.00499
1.00056
1.0008
0.854146
1.00437
1.00033
1.00089
1.01888
1.00101
1.02619
1.00048
1.02377
1.00049
1.0004
0.999399
1.00227
1
1.00013
1.01633
1.00192
1.00427
1.00122
1.00305
1.01424
1.00366
1.00214
1.00255
1.00327
1.00035
1.00585
1.00618
1.00246
1.00306
1.00552
1.00634
1
1.00363
1.06658
1.00616
0.99998
1.00325
1.00199
1.01747
1.00036
1.01691
1.00148
1.01735
1.00007
1.0003
0.98984
0.923152
0.995176
1
0.992514
0.922692
0.846171
1.0013
0.545247
0.98776
0.845153
1.01557
0.545186
0.586932
0.991901
0.673422
1.0142
0.588095
1
0.67215
0.854474
1.00386
1.00056
1.00239
0.852228
1.00411
1.00004
1.00085
1.01189
1.00101
1.02661
1.00037
1.01833
1.00023
1.00052
1.01177
1.00231
0.9916
1.00002
0.977379
1.00181
1.00407
1.00233
1.00352
1.01822
1.0032
1
1.00218
1.00301
1.00524
1.00575
1.01206
1.00198
1
1.00546
1.00611
1.00048
1.00349
0.995214
1.00552
1.00372
1.00307
1.00162
1.01548
1.00039
1.01508
1.00115
1.01645
1.00004
1.00035
0.996908
0.923122
1
1.00005
1.00071
0.925585
0.844966
1.02401
0.545261
1.00482
0.84557
1.02647
0.543767
1.00114
1.03068
0.952661
0.988225
0.998357
1.03924
0.980233
0.985759
0.992361
0.992967
0.997794
0.977154
0.987701
0.988012
-4.6773e-19
0.0278211
-5.67782e-20
0.0141491
6.28605e-12
0.035832
6.28606e-12
0.998281
1.03674
1.015
1.01813
1.0003
1.04287
1.0119
1.00153
1.00044
1.00541
1.00054
1
1.00286
1.00171
-1.2556e-16
0.73714
-1.51494e-14
0.130185
6.20221e-09
0.737875
3.36898e-09
1.00091
0.990082
0.987287
1.02766
0.999298
1.00335
1.01683
1.00018
1.0029
0.963863
1.00269
1.0027
0.970751
1.00113
-2.42656e-17
1.00005
-7.56224e-17
0.938944
1.20494e-08
1.00004
2.78302e-07
1.01917
1.01294
0.998667
1.08111
1.01923
1.0094
1.00001
0.993022
0.995049
0.99924
1.00008
0.997904
0.998591
0.983571
0.0142382
1.00182
0.286872
1.001
0.0203892
1.00275
0.301164
1.01422
0.992647
0.901726
0.991724
1.02801
0.990259
0.890577
1.00192
1.00354
1.00602
1.00597
1.00346
1.00647
1.00205
0.428253
1.00106
0.587095
1.00122
0.430883
1.00176
0.588165
1
1.00439
0.943584
1.00016
0.987559
1.00545
0.994965
1
0.999946
0.94338
0.998747
0.999873
0.950787
1.00034
0.601089
1.00224
0.41467
1.00208
0.601507
1.00288
0.416948
0.930663
1.01226
1.00989
1.0111
0.910919
0.993509
1.0071
0.998943
1.00473
0.941763
1.00076
1.00494
0.936988
0.996159
0.275656
1.00141
0.0138376
1.00454
0.284873
1.00148
0.0202431
1.03598
0.979584
1.01069
1.04775
1.0122
1.00012
1.00987
1.01878
1.01228
1.03837
1.03364
1.01245
1.03838
1.02229
-1.7115e-17
1
-4.61699e-17
1.00082
2.35075e-07
0.997765
1.39327e-08
0.986333
1.00804
0.994005
1.02903
1.00868
0.997378
1.00365
0.980932
1.0012
0.965804
0.996931
0.999813
0.970658
0.965915
-4.07028e-17
0.249221
-8.45396e-17
0.87093
2.62942e-10
0.25856
1.14871e-09
0.996428
0.950151
0.993601
0.999085
1.01711
0.943517
0.991422
1.00581
0.998216
1.01208
0.999377
0.998015
1.01104
1.00647
-8.19958e-18
0.00359175
-4.55171e-18
0.13415
1.69634e-11
0.00804791
1.69634e-11
1.00246
1.02487
0.994588
0.985574
1.00125
1.02103
0.995494
0.99343
0.991408
0.977713
1.00237
0.989152
0.992033
0.992831
2.65225e-11
0.0369124
2.65225e-11
0.0158032
2.65225e-11
0.0364121
2.65225e-11
0.997942
1.03187
1.01115
1.01695
0.997282
1.05221
1.01169
1.00351
1.00064
1.0016
0.999564
1.00324
1.00062
1.00163
1.74327e-08
0.737061
9.33507e-09
0.130091
1.74162e-08
0.737309
9.33507e-09
1.01385
0.999994
0.9793
1.07242
1.04747
1
0.880928
1.00117
1.00342
1.0092
1.03009
0.999942
1.00367
1.01516
2.21088e-08
1.00048
4.26034e-07
0.9382
2.21727e-08
1.00004
4.26882e-07
1.02166
1.02203
1.02824
0.904121
1.01308
1.02728
1.01365
0.976113
0.996391
0.944021
0.992985
0.983968
0.996343
0.976367
0.0212383
1.00252
0.300703
1.0011
0.0212582
1.00228
0.301984
1.04694
0.998689
0.898141
0.999367
1.05838
1.00863
0.995459
1.00009
1.00319
1.00616
1.0115
1.00073
1.00303
1.006
0.431139
1.00207
0.588924
1.00104
0.431178
1.00194
0.588905
0.975306
1.00852
1
1.01479
0.986848
0.996184
0.764018
1
1.00035
0.999378
1
1
1.0014
0.992031
0.6025
1.00286
0.417483
1.00217
0.602341
1.00309
0.417164
0.96716
1.0097
1.03426
1.08391
1.55102
1.02507
1.00438
1.00074
1.00604
0.969072
1.04606
1.00003
1.00598
0.946125
0.286193
1.00191
0.0211846
1.0043
0.286431
1.00156
0.0211292
1
1.01333
1.00699
1.04263
0.990204
1.03104
1.00706
1.01395
1.01174
1.03803
1.02395
1.01389
1.01189
1.03605
3.65074e-07
0.997394
2.34346e-08
1.00082
3.65662e-07
0.997401
2.34424e-08
0.993538
0.987009
0.992279
0.998585
0.997226
1.02917
0.998761
0.984185
0.999563
0.943551
0.992708
0.975602
0.999691
0.938283
5.40527e-10
0.259956
2.42328e-09
0.870892
5.42023e-10
0.260422
2.51163e-09
1.02006
0.963098
0.985516
1.05403
0.995134
0.999998
0.972806
1.00295
0.999125
1.01489
0.999975
1.00527
0.999799
0.99709
6.5525e-11
0.0087092
6.5525e-11
0.136163
6.5525e-11
0.00872344
6.5525e-11
1.00022
1.01516
0.996066
0.969934
1.00645
1.01429
1.00084
1.00012
1.00174
1
1.01225
1
1.00067
1.00313
6.4987e-12
0.0353133
6.49871e-12
0.00794107
-4.49689e-19
0.0282587
-4.60336e-20
0.997872
1.01387
1.01431
1.00237
0.992894
0.97481
1.00347
1.00385
1.00077
1.00136
1.00223
1.00351
1.00424
1.00143
6.19838e-09
0.736992
3.38445e-09
0.125712
-1.35209e-16
0.736928
-1.62497e-14
1.05208
0.969439
0.89682
0.997685
1.06942
0.916572
0.872476
1.00497
1.00458
1.01373
1.02662
1.00388
1.00512
1.01457
1.19943e-08
1.00043
2.76615e-07
0.941191
-2.81605e-17
1.00003
-6.34225e-17
1.01059
0.999999
0.999333
0.903517
1.00079
0.952727
0.980022
0.948368
0.997549
0.944842
0.999059
0.99058
0.994118
0.93273
0.0203993
1.00223
0.298155
1.00013
0.0142019
1.00148
0.28691
1.06525
1.01238
0.999421
0.881547
1.06543
1.0279
0.991247
0.993951
1.00289
0.99092
1.01867
0.994171
1.00341
0.968183
0.430635
1.00174
0.587919
1.0007
0.427988
1.00077
0.587063
0.989214
0.580585
0.996346
1.02665
0.999779
0.97775
0.866789
1.00554
1.00329
0.998818
1.01771
1.00201
1.0032
1.00178
0.601315
1.00256
0.417074
1.00094
0.601039
1.00233
0.414377
1.23344
1.03506
0.979321
0.97162
0.890847
1.00985
1.00564
1.00215
1.0076
0.971184
0.982635
1.00578
1.0067
0.968654
0.28424
1.00185
0.0203197
1.00385
0.274371
1.00134
0.0137816
0.943071
1.02837
1.00412
1.04033
0.918421
1.03381
1.00433
1.00763
1.01133
0.997369
1.01448
1.00801
1.01077
0.995745
2.31184e-07
0.997964
1.39796e-08
1.00018
-1.06426e-17
1
-4.61196e-17
0.999965
1.03507
0.997234
0.998959
0.996235
1.03992
1
0.97632
1.00019
0.947308
1
0.984234
1.00033
0.905719
2.66122e-10
0.259744
1.20295e-09
0.869793
-4.40223e-17
0.250889
-8.13389e-17
1
0.97842
0.994116
0.997316
1.00512
0.94777
1
1.00268
0.997898
0.995632
1.00092
1.00228
0.998348
0.999106
1.62909e-11
0.00804957
1.62909e-11
0.128519
-7.64425e-18
0.00357439
-3.92743e-18
0.999993
1
0.533127
0.591849
0.533737
1
1
0.951048
0.808158
0.988174
0.959072
0.826299
0.987889
0.961171
0.99631
0.587922
1
0.671517
0.586976
1
0.996261
0.991193
0.993767
0.991484
0.979709
0.986891
0.988182
0.993167
0.999982
0.592986
1
0.534483
0.534424
0.999999
1
0.951537
0.953674
0.923963
0.987802
0.886607
0.98941
0.953211
0.99629
0.67139
0.589405
1
0.584814
1
0.995129
1.0008
1.0011
0.944021
0.855063
1.00095
0.9431
1.00076
0.997273
0.999242
1.00267
1.00568
0.999463
1.00286
0.997881
1.0003
1
1.00216
1.00011
1
1.00203
1.00032
1.00238
1.00253
1.00015
1.00179
1.00057
1.00199
1.00266
1.00122
0.852773
1.00118
0.939554
1.0014
0.939956
1.00114
0.997275
1.00534
1.00046
1.00294
1.00078
1.00338
0.997842
1.00072
1.00038
1
1.0019
1
1.00232
1.00042
1.00171
1.00199
1.00077
1.00044
1.00188
1.0009
1.00196
1.00713
1.01032
0.999953
1.00638
1.03501
1.00036
0.999657
1.00058
1.00102
1
1.00031
1.00053
1
1.0002
0.999666
1.00253
1.00322
1.00016
1.00288
0.990642
0.999741
1.00184
1.00086
1.00187
1.00092
1.00216
1.00131
1.0016
1.01571
1.01451
1.06796
1.00113
1.05314
1.00136
1.01562
1.00202
1.00117
1.00094
1.00005
1.001
1.00028
1.00152
0.996085
0.998588
1
1
0.997636
0.999817
0.996935
0.998206
1
1.00128
0.996586
0.970568
1.00087
0.999526
0.999804
1.00077
1.00264
1.00241
1.00045
1.00261
1.00024
0.996752
1.00035
0.993267
0.941819
0.998496
0.993008
0.979309
0.998618
1.00036
0.999782
1.00007
0.999078
1.00011
0.999987
0.988498
0.993995
0.809197
1.00034
0.826906
1.00065
0.982301
0.999199
1.00234
1.00042
1.0022
1.00091
1.00251
1
1.00226
1.00441
1.00545
1.00421
1.0042
1.00583
1.00321
0.99994
0.989589
1.00005
1.0005
0.996303
1.00023
0.999327
1.00155
1.00395
1.00195
1.00603
1.00432
1.00098
1.00237
1.00191
1.00861
1.00363
1.00801
1.00365
1.00816
1.00207
1.00251
1.00423
1.00404
1.0064
1.00463
1.00647
1.00221
1.00013
1.0015
1.00021
1.00078
1
1.00048
1.0001
1.00179
1.00604
1.00456
1.00095
1.00515
1.00123
1.00126
1.00185
1.00196
1.00455
1.00404
1.00159
1.0046
1.00237
0.998448
0.988371
1.00499
1.0031
0.975679
1.00461
0.999822
1.00134
1.00494
1.00655
1.00623
1.00566
1.00598
1.00169
0.999606
0.999913
1.00037
0.985362
1.00001
0.966707
0.998782
1.00164
1.00395
1.0015
1.00467
1.00169
1.00492
1.00122
0.997504
0.997202
0.990245
1.00466
0.995796
1.00473
0.996613
1.00107
1.00479
1.006
1.00619
1.00612
1.00702
1.00107
1.00732
1.00694
1.00732
1.00472
1.00551
1.00715
1.00705
0.986185
0.965176
1.00229
1.00015
0.978106
1.00201
0.990008
1.00045
1.00432
1.0043
1.0031
1.00428
1.00394
1.00067
0.997646
1.00031
1.00584
0.963708
1.00538
0.94756
0.997179
1.00821
1.00471
1.0066
1.00717
1.00571
1.00739
1.00817
0.990088
1.00055
0.969333
1.00144
0.973824
1.00155
0.989936
1
1.00359
1.00382
1.004
1.00423
1.00481
1
0.998506
1.00451
0.996149
1.00161
1.00454
0.996156
0.996307
1.00805
1.02173
1.00882
1.02111
1.02059
1.00925
1.00811
1.00059
0.999367
1.00129
1.00006
0.999464
1.00137
1.00086
1.01616
1.0313
1.01205
1.03733
1.01206
1.03808
1.01572
1.00048
1.00192
1.00451
0.996369
1.0046
0.996181
1.00032
1.00784
1.02043
1.01877
1.00901
1.02036
1.00876
1.00735
1.00038
1.00038
0.999369
1.00171
0.999488
1.00172
1.00022
0.994663
0.999989
1
1.00001
0.999553
1
0.998223
0.959652
0.944461
0.996244
0.988361
0.934377
0.99611
0.972887
0.997631
1
1
0.926413
0.999989
1
0.995923
0.967946
0.992758
1.00067
0.931197
1.00063
0.931137
0.963758
0.999204
1.00036
0.999711
1
1
1.00001
0.999249
0.945911
0.997988
0.935124
0.994014
0.933352
0.997728
0.952865
0.997567
0.925425
1
0.99992
1
0.999982
0.998651
1.00136
1
0.709708
0.846975
1
0.708925
1.00101
1.00268
0.992427
0.996408
1.00042
1.00489
0.995901
0.999995
1.00016
0.669744
1
0.544753
0.668915
1
1
1.00618
1.00135
0.999309
1.01017
0.999391
1.01302
1.00495
1.00171
0.846625
1
0.709376
1.00003
0.707625
1.0012
1.00683
1
1.00374
1.00135
1.00357
1.00429
1.00055
1.00052
0.544456
0.667309
1.00021
0.668661
1.00058
1.00023
1
1
0.534594
0.590381
0.999999
0.534557
1
0.973868
0.944383
0.99024
0.964973
0.952256
0.971953
0.989232
0.995719
0.591717
1
0.670461
0.994138
0.58821
1
0.996364
1.00358
1.00059
0.99946
0.999982
0.998871
0.99974
1.00001
0.589269
1.00137
0.534889
0.534872
1.00011
1.00064
0.994538
0.984224
0.996444
0.992092
0.990835
0.991369
0.993407
0.996581
0.672018
0.585994
1
0.590121
1
0.998646
1.00105
1.00122
0.939061
0.853981
1.00118
1.00119
0.93919
0.997816
1.00072
1.00343
1.00472
0.998018
1.00066
1.00352
1.00058
1
1.00234
1.00032
1.00061
1
1.00201
1.00353
1.00013
1.00129
1.00146
1.00077
1.00146
1.00371
1.00095
0.853667
1.00125
0.939745
1.00117
0.939572
1.00097
0.998037
1.00407
1.00028
1.00399