/*--------------------------------*- C++ -*----------------------------------*\
| =========                 |                                                 |
| \\      /  F ield         | OpenFOAM: The Open Source CFD Toolbox           |
|  \\    /   O peration     | Version:  5.0                                   |
|   \\  /    A nd           | Web:      www.OpenFOAM.org                      |
|    \\/     M anipulation  |                                                 |
\*---------------------------------------------------------------------------*/
FoamFile
{
    version     2.0;
    format      ascii;
    class       surfaceScalarField;
    location    "3.2";
    object      alphaPhi10;
}
// * * * * * * * * * * * * * * * * * * * * * * * * * * * * * * * * * * * * * //

dimensions      [0 3 -1 0 0 0 0];

internalField   nonuniform List<scalar> 
23929
(
2.63517e-08
2.70363e-08
2.84263e-08
2.27043e-08
3.36682e-08
2.51513e-08
1.86262e-08
1.49403e-09
2.9925e-08
1.19887e-08
3.19973e-08
3.94811e-08
2.92799e-08
2.35662e-09
3.86501e-08
2.75275e-09
2.44626e-08
2.61151e-08
2.52771e-08
-4.95102e-10
-2.08165e-09
-3.5644e-09
9.35521e-09
-1.18552e-11
6.27763e-08
6.27768e-08
6.27763e-08
4.61663e-23
5.61207e-19
1.0455e-21
6.45468e-20
7.58259e-21
-8.30393e-19
1.84006e-19
2.38672e-26
-2.42127e-23
-1.22911e-25
1.01959e-26
4.55086e-27
-1.56604e-29
2.61718e-28
1.37892e-29
-1.51809e-30
3.7276e-31
3.38928e-31
-1.06989e-31
2.49841e-35
1.38063e-34
-3.72488e-34
4.13288e-39
1.40006e-38
-3.90517e-37
1.54654e-42
3.89036e-42
2.69266e-41
6.19735e-46
5.46437e-46
1.1518e-43
2.48261e-49
3.10224e-49
-9.17175e-48
9.9892e-53
2.3063e-53
2.03745e-50
3.9978e-56
-3.36421e-57
6.59908e-53
1.59951e-59
5.43409e-60
9.10795e-58
6.53407e-63
3.36906e-63
-2.00462e-59
2.64037e-66
1.12418e-67
1.71916e-62
1.06506e-69
-2.39206e-71
1.10056e-65
4.313e-73
-6.07971e-74
-1.24508e-69
2.06126e-76
3.19228e-77
-1.39028e-72
1.12743e-79
-5.31679e-80
-8.45575e-76
4.12738e-83
-5.50198e-84
8.13881e-79
1.73307e-86
-6.1241e-88
-3.52555e-82
1.08913e-89
3.66824e-91
1.20788e-84
5.51555e-93
-1.60564e-94
2.57686e-88
4.27032e-96
1.0215e-96
-4.11968e-91
2.0984e-99
1.61288e-100
-1.57664e-94
5.2011e-102
1.55351e-104
-1.13798e-98
8.59657e-105
-4.75078e-105
4.41213e-100
1.84144e-108
-2.34895e-109
7.00651e-104
1.43718e-111
1.50669e-112
5.36377e-107
1.74441e-114
8.52415e-116
-7.34867e-110
4.20714e-117
3.29954e-118
-2.80272e-114
3.20622e-121
-3.668e-122
1.8806e-118
1.23348e-124
-1.17894e-125
2.33684e-125
1.33299e-127
4.43131e-129
-1.72994e-123
1.68032e-130
-1.09029e-131
-1.93865e-126
3.1469e-133
1.33122e-133
8.90017e-130
6.78486e-136
2.16163e-136
-2.06033e-132
9.12281e-140
1.19412e-141
7.97687e-136
5.57285e-143
2.15294e-143
-2.70535e-138
1.35779e-146
9.56183e-148
-1.00088e-141
2.2669e-149
-4.47347e-153
6.04982e-147
2.45565e-151
1.05793e-152
-2.45048e-148
1.91595e-156
2.85169e-156
5.50757e-08
-1.33581e-08
-3.96371e-07
4.08907e-08
4.41629e-08
3.60953e-08
-2.73706e-07
-2.93518e-07
-3.08025e-07
-2.8338e-09
-1.43737e-08
-9.406e-09
-1.31697e-08
3.43428e-08
4.76535e-08
1.75774e-08
8.04408e-09
-3.04311e-09
-6.01718e-09
3.04484e-08
2.67262e-08
-2.07482e-08
-1.14809e-09
-6.07125e-09
3.41319e-08
1.97942e-08
-5.89858e-09
3.22166e-08
2.0729e-08
3.72315e-08
-3.62784e-08
-2.48981e-08
-5.0193e-09
5.09871e-10
-2.17053e-09
1.63922e-09
3.07877e-09
-6.11108e-11
1.11515e-13
1.7817e-08
1.16165e-11
1.78158e-08
7.88321e-22
-1.4392e-18
3.99401e-19
4.07279e-20
1.73452e-16
-1.82753e-18
-1.6909e-16
-1.3468e-18
-2.04499e-18
-1.33441e-18
2.08157e-25
-2.58872e-22
-4.12502e-24
2.22268e-28
-7.67166e-26
5.25606e-27
7.70533e-29
-6.29168e-28
1.47961e-30
1.81927e-31
-1.1026e-31
-2.47862e-33
1.12746e-35
-3.69867e-34
-2.9708e-35
1.27646e-39
-1.20947e-37
-1.06112e-39
4.69164e-43
-1.32022e-41
2.04686e-43
1.86987e-46
-3.17968e-45
-6.50414e-45
7.47054e-50
-8.51732e-49
-7.87589e-49
2.98723e-53
-2.40828e-52
-4.14322e-51
1.18945e-56
3.75068e-56
-7.70615e-54
4.71606e-60
-1.13067e-59
-1.30688e-57
1.87386e-63
-6.64156e-63
2.32391e-60
7.53864e-67
-1.14148e-66
-1.51991e-64
3.08075e-70
4.16868e-70
1.47579e-66
1.22437e-73
-9.81677e-74
-5.61345e-70
4.98254e-77
-3.21985e-78
1.14872e-73
2.15358e-80
3.08692e-80
3.57906e-76
8.3315e-84
-1.76596e-83
4.42019e-80
3.20539e-87
-3.02063e-88
2.31206e-83
1.38635e-90
3.9722e-91
-7.97695e-87
7.19837e-94
-1.25761e-92
-4.30997e-89
5.29624e-97
4.84403e-98
4.30476e-93
7.46002e-100
4.28057e-101
-2.04005e-95
2.08479e-103
-8.78002e-102
-2.51642e-99
2.71987e-106
-6.94342e-105
1.13872e-100
7.36268e-110
1.73023e-110
-6.28429e-106
7.07261e-113
2.33308e-112
1.40373e-107
2.17596e-116
8.1401e-117
-1.05682e-111
5.03868e-119
8.07206e-121
1.09025e-122
7.13602e-121
-5.53188e-123
-8.19122e-118
5.38913e-125
-2.4724e-125
2.18643e-120
1.67173e-128
-1.99039e-128
-3.81007e-124
1.24484e-131
5.39798e-133
-1.37255e-126
2.5102e-135
-1.61478e-134
1.9275e-130
1.03248e-138
1.09838e-140
7.73729e-139
7.17647e-142
2.40928e-142
4.02617e-136
2.90504e-145
7.30673e-147
-3.28191e-140
1.51031e-148
-1.22862e-147
-5.80192e-143
4.34603e-152
-2.71808e-151
1.57691e-147
9.13612e-154
7.44222e-156
5.95179e-151
1.38242e-157
-6.23254e-153
8.39369e-08
5.86407e-09
-1.68225e-07
-4.77238e-07
-3.43645e-07
-1.84596e-07
8.84797e-09
-1.94179e-08
2.09905e-07
4.05317e-07
1.33185e-07
8.59671e-08
-2.51323e-08
1.09732e-09
-1.76118e-08
-1.65491e-08
5.54189e-09
-2.84201e-09
-2.47853e-08
-4.88299e-09
2.64517e-08
2.34263e-08
4.29997e-10
-3.68958e-08
2.89157e-08
-5.41084e-08
-4.02692e-08
-5.22211e-09
-3.51929e-08
-1.30519e-09
6.65596e-09
-2.52527e-07
-4.24925e-08
-3.41976e-09
2.38933e-09
1.54876e-09
6.47125e-09
-4.23619e-09
6.00272e-12
-4.13704e-11
1.48111e-09
-1.43085e-10
1.56706e-09
2.1674e-19
-1.35456e-18
-5.74826e-09
-1.38726e-18
-5.74594e-18
4.5339e-19
3.80028e-18
5.45449e-25
-2.10123e-21
-1.91138e-23
7.38949e-20
7.34241e-20
7.27093e-20
7.57768e-20
8.35723e-26
-2.95214e-25
-1.26021e-26
1.97081e-27
-1.46388e-28
6.88862e-30
7.59465e-31
-2.01681e-31
-2.58551e-30
5.12307e-35
5.13074e-34
-1.78028e-34
1.86109e-38
1.21241e-37
4.14123e-38
6.71117e-42
2.66595e-41
-3.10106e-42
2.60006e-45
7.09448e-45
-1.67467e-44
1.05157e-48
2.41432e-48
-2.64098e-46
4.29767e-52
4.95725e-52
-9.1686e-49
1.75311e-55
3.25572e-55
-1.17631e-51
7.09156e-59
-3.16461e-59
-1.36501e-56
2.89255e-62
4.85371e-62
3.142e-59
1.17411e-65
-7.36954e-66
-6.86314e-63
4.80579e-69
2.03352e-68
2.8275e-65
2.01916e-72
4.17696e-73
-4.30021e-68
8.97751e-76
-8.79309e-76
-1.04024e-71
4.0392e-79
-2.02047e-79
8.55572e-75
1.60245e-82
2.03198e-83
-1.14655e-78
1.15332e-85
-5.03573e-86
2.64208e-83
2.46174e-88
-7.00746e-90
-2.48842e-86
1.68335e-91
-1.25176e-92
-5.53106e-87
2.01108e-95
-1.82367e-95
8.11134e-96
6.04791e-98
-1.7703e-97
-6.37527e-100
1.16528e-99
2.70873e-101
-3.08843e-98
6.94628e-104
8.11299e-105
-3.66754e-99
1.1933e-107
4.35178e-108
2.25888e-102
5.30655e-111
-5.458e-112
6.75461e-106
2.08769e-114
-2.42348e-116
5.54039e-110
2.02134e-117
1.57587e-118
-1.14773e-113
1.0676e-119
5.15645e-122
-2.1166e-116
1.86153e-123
3.10077e-123
4.59291e-119
5.66446e-127
6.57612e-128
-8.37605e-122
6.59321e-130
6.66102e-130
-6.4881e-125
1.77483e-132
6.36966e-133
-1.31574e-128
1.35001e-136
-8.78695e-137
5.60992e-132
3.85602e-140
3.09838e-141
6.04381e-136
3.14043e-143
-2.05019e-143
5.06368e-140
9.46672e-146
2.96605e-147
-2.053e-141
3.58147e-149
7.5746e-150
-2.98624e-145
6.04149e-153
-1.24481e-154
1.99353e-149
-6.20214e-156
1.10751e-154
5.83571e-09
1.00995e-08
-2.93163e-07
2.37377e-08
2.61557e-09
-1.18698e-07
-1.54993e-07
-1.16763e-07
5.6077e-08
2.36101e-08
1.01891e-08
-9.86875e-07
-4.28628e-07
-4.06435e-07
1.45204e-07
1.44556e-08
1.38647e-08
1.38571e-08
1.21806e-08
-4.56347e-08
-4.52833e-10
1.39651e-07
1.04351e-07
-1.37014e-08
6.07298e-08
7.41152e-08
-4.12999e-09
2.17571e-09
-1.6825e-07
6.77391e-08
3.60688e-07
9.90665e-09
2.41074e-09
-3.72016e-10
6.477e-09
-1.63969e-08
-1.16371e-07
-6.24923e-08
1.05493e-07
3.99544e-10
-1.63204e-08
2.47152e-09
4.14682e-10
1.36057e-08
-1.13687e-10
1.59844e-11
8.4682e-11
-2.51179e-11
1.38599e-10
3.14899e-14
-7.37934e-19
1.21714e-16
4.477e-14
6.47585e-14
-1.40954e-13
-1.62996e-16
-1.96558e-08
-1.96558e-08
-1.96558e-08
-1.96558e-08
-1.69739e-22
-8.85e-21
1.39507e-22
3.20993e-19
1.071e-20
2.5519e-19
4.96383e-19
1.0031e-26
-1.19216e-24
-7.25305e-26
2.51349e-27
-3.51317e-28
4.92209e-30
3.5581e-29
-1.02519e-28
1.08536e-30
1.05789e-32
-2.99957e-31
2.73302e-33
5.62075e-37
-6.35845e-35
1.9952e-36
1.61415e-40
-9.68214e-39
-5.90265e-40
6.36081e-44
-2.64932e-42
8.65962e-44
2.55085e-47
-4.82079e-46
-1.19546e-46
1.025e-50
-1.56618e-49
8.898e-49
4.07778e-54
-3.81172e-53
-7.08031e-51
1.62574e-57
-2.77988e-57
-2.09756e-56
6.48743e-61
-1.32806e-60
-2.70743e-58
2.69065e-64
-3.80379e-64
3.96814e-61
1.20358e-67
9.10501e-68
1.27943e-63
4.68484e-71
3.40527e-70
6.14889e-67
1.98149e-74
4.07978e-74
7.83558e-71
8.36669e-78
-1.16673e-76
-7.00287e-73
5.9223e-81
1.87769e-81
-2.56571e-78
1.23047e-83
2.64042e-84
-4.97946e-80
1.14977e-87
-3.69574e-86
-3.54064e-84
9.88854e-91
-3.02176e-92
5.36913e-87
4.23131e-93
1.84774e-94
-7.00085e-90
1.74928e-96
-5.26041e-97
2.155e-92
2.56701e-100
-4.26993e-99
-5.42161e-95
1.81998e-103
4.56792e-104
2.03045e-99
3.39995e-106
2.80315e-107
4.19338e-102
4.47906e-110
6.47332e-111
-2.16344e-105
2.65876e-113
-9.18536e-113
-1.45803e-108
6.58314e-116
-8.89925e-116
9.00763e-112
2.74394e-118
7.21644e-119
-8.88086e-115
2.99486e-122
2.07175e-122
1.09871e-117
1.95136e-125
-2.42441e-126
-2.66686e-121
4.28613e-128
-2.72925e-129
4.34739e-124
5.54722e-132
-7.41597e-132
2.21504e-126
6.62303e-135
-1.43561e-133
6.88659e-130
1.43425e-137
3.51749e-138
-5.2734e-134
2.42982e-141
-7.33038e-143
-1.20234e-137
5.9565e-145
1.98686e-144
-5.2397e-140
3.05832e-148
2.10415e-148
-1.99135e-143
3.72254e-151
-3.76616e-152
1.23449e-147
-3.53616e-153
-2.7563e-150
-1.59888e-09
1.84597e-08
1.04296e-07
2.16244e-08
6.59632e-09
6.59637e-09
-2.87323e-08
-1.68599e-08
-1.58113e-07
4.07744e-07
9.51074e-07
1.64275e-07
1.07466e-08
-3.71194e-09
2.7776e-08
1.71218e-08
2.35636e-08
-5.44619e-09
-1.60675e-08
1.83763e-08
-2.32217e-08
-2.77187e-07
1.55535e-07
-2.46804e-08
3.52733e-08
-8.63388e-09
1.55264e-08
1.22437e-09
-2.10655e-08
-1.70325e-08
-8.21179e-08
-1.78966e-08
8.19357e-08
-9.20612e-08
1.27724e-08
8.97608e-09
9.20351e-09
1.09439e-08
-8.57386e-10
-2.3767e-08
3.97856e-09
-4.4373e-09
2.34042e-08
-3.01763e-09
1.12286e-10
-2.03234e-10
-6.7239e-13
7.51209e-11
-2.06257e-10
7.31304e-10
2.26766e-10
-4.41546e-11
-3.85034e-11
4.29276e-10
3.20686e-10
4.74312e-10
3.06961e-10
-2.57503e-13
3.02395e-15
3.09097e-08
-4.1812e-16
3.09097e-08
5.63719e-23
6.71039e-21
-8.06885e-22
5.71537e-18
5.85335e-18
6.64396e-18
5.33063e-18
1.24657e-25
9.03768e-25
-1.92663e-25
8.20769e-27
7.65446e-27
2.95853e-30
3.99115e-28
3.5067e-29
1.38323e-29
2.54818e-31
-3.26557e-31
1.15761e-30
1.1827e-35
-9.36739e-35
-3.15375e-34
2.82044e-39
-7.72552e-39
-5.27462e-37
1.09633e-42
-1.60742e-42
-3.20717e-40
4.36815e-46
-7.70879e-46
-3.20796e-44
1.74625e-49
-1.72228e-49
-2.91099e-47
6.99769e-53
-3.66922e-53
2.26517e-50
2.80276e-56
-8.29658e-56
1.33548e-52
1.13707e-59
-1.42914e-60
-7.76034e-57
4.76485e-63
1.68611e-63
-1.98371e-59
1.81982e-66
6.43556e-68
-1.56633e-62
7.47217e-70
-5.5045e-71
1.35392e-65
3.35962e-73
2.88264e-74
-2.0452e-69
1.68152e-76
1.81229e-76
-1.2626e-71
7.50291e-80
9.46801e-81
2.12187e-76
8.6209e-83
7.67936e-84
2.34969e-78
1.67341e-85
8.38972e-87
-8.17391e-82
3.7726e-89
-1.97407e-89
-7.3687e-84
2.39202e-92
-2.59563e-92
-5.89859e-89
1.38384e-95
-7.27497e-96
-1.07145e-90
2.89225e-98
1.9058e-99
-1.36787e-93
2.6398e-102
-1.85371e-103
6.62154e-98
9.06341e-106
-4.14715e-107
4.17999e-101
1.48417e-108
5.61831e-110
2.26064e-104
6.01455e-111
7.23239e-113
-2.99967e-106
5.8625e-115
4.64864e-115
-2.84825e-110
2.43207e-118
-2.11865e-119
7.28625e-119
3.74184e-121
-2.35461e-122
3.81264e-116
4.66106e-125
5.19675e-125
-2.37105e-122
9.20954e-128
1.06487e-126
-6.76354e-123
5.95987e-130
-1.1578e-130
4.01145e-126
3.20802e-133
-1.73113e-133
-1.93784e-128
5.00214e-137
-2.34064e-137
6.24757e-133
6.51735e-140
-7.18714e-141
3.07987e-136
4.06173e-142
3.32635e-143
-3.39107e-140
4.96657e-146
2.45321e-146
7.7324e-142
3.59506e-149
1.20502e-149
-2.96282e-145
1.03745e-153
-5.94841e-148
2.24645e-08
2.6946e-08
2.76974e-08
-3.11107e-08
7.49687e-08
-7.04214e-09
1.22905e-08
1.753e-08
1.3492e-08
1.23761e-08
1.97633e-08
-7.04907e-09
1.35054e-07
-8.51338e-09
4.52116e-08
-4.88973e-08
-6.17055e-08
-7.69153e-09
1.22497e-07
2.86634e-08
-1.04041e-08
3.66993e-08
1.15649e-08
7.70119e-09
2.69161e-09
1.77201e-08
3.18172e-09
8.77226e-10
-2.37494e-08
-1.14127e-09
6.25623e-11
1.22179e-10
2.19864e-11
-3.20171e-10
-1.29332e-09
5.98796e-10
1.46506e-10
1.20199e-10
1.98772e-10
1.60087e-10
-2.74781e-11
1.54955e-15
6.27764e-08
7.18522e-13
6.27763e-08
-2.96602e-23
1.83705e-21
-1.44328e-21
5.76694e-18
5.50423e-18
6.58864e-18
5.02825e-18
2.00846e-26
4.37122e-25
-1.39521e-25
8.08137e-27
4.85423e-27
-4.99667e-30
3.16851e-28
4.9472e-29
-8.25981e-29
2.15824e-31
-1.75993e-32
-9.468e-31
1.01758e-35
-1.02191e-35
1.28939e-35
2.37357e-39
3.72363e-40
-2.53205e-37
9.21415e-43
-3.64942e-44
5.14907e-41
3.71845e-46
1.26496e-48
1.71883e-44
1.51219e-49
1.40991e-49
-4.13715e-46
6.23366e-53
-7.78148e-54
-1.57945e-50
2.67168e-56
2.34356e-56
-3.31986e-53
9.90265e-60
-3.1167e-60
9.59674e-57
3.91618e-63
-8.53374e-64
1.83442e-59
1.60039e-66
5.06829e-67
-1.1699e-62
6.6341e-70
2.41147e-71
-1.23936e-65
8.6603e-73
-1.79784e-74
2.10248e-69
4.76258e-75
1.2575e-76
5.31861e-73
2.75087e-79
-2.30247e-81
-4.17492e-76
1.30868e-82
-7.78156e-85
5.14317e-80
3.51935e-85
-1.78564e-86
-7.32724e-82
5.48012e-88
2.49531e-88
-1.28141e-84
3.04855e-91
1.73308e-91
-4.51159e-87
1.01693e-94
3.08716e-96
-1.99615e-90
2.46574e-98
2.21336e-99
-1.00611e-94
1.31854e-101
4.74152e-103
-2.05681e-96
7.31769e-105
1.52749e-105
-3.1775e-100
2.67335e-108
-2.24311e-109
1.81427e-103
1.91362e-111
-1.17114e-112
-5.01118e-106
1.09659e-114
1.67919e-115
-2.58935e-109
4.78934e-118
-9.31772e-121
-3.46324e-114
1.08716e-120
-6.85833e-122
1.18863e-116
2.25811e-123
3.63668e-125
1.4267e-119
5.35838e-126
1.12201e-127
1.22143e-122
5.46043e-130
6.04132e-131
-8.22047e-126
1.67871e-133
-7.36945e-135
-5.16662e-129
8.58001e-137
-7.87675e-140
-5.44903e-132
8.29005e-140
-4.71824e-143
-6.84857e-136
1.25307e-143
1.10049e-144
-4.24084e-144
4.48809e-147
5.81618e-149
3.30173e-142
1.64975e-150
7.17232e-152
-4.65768e-146
9.276e-155
6.40617e-154
-2.56446e-08
2.62482e-08
3.25346e-08
2.66307e-08
2.57835e-08
2.51554e-08
2.57405e-08
-4.08528e-08
1.13611e-07
1.82155e-08
1.18311e-07
1.1116e-07
1.38995e-08
2.7602e-08
2.80733e-08
-3.78088e-08
1.87628e-08
1.78637e-08
2.15718e-08
2.06493e-08
5.63587e-09
-2.15604e-08
9.39762e-09
-4.55144e-08
-3.15834e-08
-2.55804e-08
-3.7918e-08
6.54294e-09
-3.06897e-09
-8.21925e-10
-2.30021e-08
-2.54434e-08
5.56434e-09
-3.09982e-08
7.10502e-08
1.62933e-08
2.53806e-08
3.81372e-08
-4.24328e-08
-1.37995e-08
1.70096e-08
9.55182e-10
1.98527e-08
-2.35277e-09
-7.09599e-09
-1.23526e-08
-4.20462e-10
-6.8395e-10
7.80387e-10
-7.03265e-11
4.87196e-11
-4.9539e-15
-1.99527e-15
2.21645e-08
-5.55097e-13
2.21645e-08
-2.7956e-22
6.22564e-21
-3.44902e-21
3.28621e-19
1.82516e-19
7.96128e-20
4.34588e-19
3.12778e-26
6.82292e-25
-3.86882e-26
2.45177e-27
1.06229e-29
2.69993e-30
3.38187e-29
-1.55159e-30
-7.33431e-31
9.39975e-33
1.15455e-34
-4.26605e-33
5.07369e-37
-9.42945e-39
8.30401e-37
1.4892e-40
-1.36929e-41
-6.24177e-39
5.89742e-44
-4.9179e-45
3.7848e-43
2.36488e-47
-1.32034e-48
2.73013e-46
9.49032e-51
7.78741e-53
-4.26527e-48
3.80867e-54
-3.38457e-55
-2.61662e-51
1.58048e-57
1.10746e-59
-6.37597e-55
6.77885e-61
6.55122e-63
-4.625e-57
2.53425e-64
-1.32218e-67
-3.59613e-62
1.0404e-67
4.18498e-70
-4.79064e-65
4.76172e-71
1.93754e-73
6.06841e-68
2.36493e-74
3.2339e-76
5.72812e-71
7.21364e-78
1.13357e-79
1.94421e-78
3.18056e-81
-2.68149e-82
-2.04584e-78
5.137e-84
-5.9071e-86
8.65298e-81
1.65595e-86
1.5467e-88
1.15384e-83
1.19266e-90
-5.20034e-92
6.48537e-86
3.25678e-94
-5.33041e-96
-5.65184e-92
1.22869e-97
-4.97565e-100
-1.72515e-95
6.74372e-101
2.37593e-102
5.88738e-101
7.05264e-104
7.0038e-106
-2.33926e-99
3.68441e-107
1.38651e-109
-3.34187e-102
3.64109e-110
4.29603e-111
1.16344e-105
2.23768e-113
2.33031e-115
9.46998e-110
5.36586e-116
-7.32754e-118
1.13598e-111
2.40935e-119
1.69106e-121
-2.28233e-115
1.25578e-122
-1.46254e-123
-1.63992e-117
4.62737e-126
-3.37761e-128
-9.93772e-123
5.85091e-129
3.33918e-130
-3.1513e-124
1.50914e-132
-1.17244e-133
-2.45045e-127
1.07009e-135
-3.33247e-137
1.49875e-131
1.56894e-138
2.34384e-140
-4.979e-134
1.23339e-141
2.14565e-145
-2.52535e-137
6.7318e-144
1.35974e-146
-1.41813e-140
3.33859e-148
-1.56681e-150
6.17988e-149
4.69911e-151
1.0653e-154
5.30816e-151
2.48338e-154
-8.16762e-150
7.39786e-09
4.38258e-08
-2.06872e-07
-8.86124e-09
-1.13005e-08
-7.73914e-09
-1.13849e-08
1.3092e-07
3.71308e-08
-2.31777e-07
4.55393e-08
1.51334e-08
-2.16919e-08
-2.40691e-07
-9.48517e-08
-2.02482e-07
-7.88875e-09
1.21097e-08
8.92529e-09
7.04575e-09
1.44119e-07
4.57256e-08
-3.83526e-07
4.11509e-08
4.45732e-09
3.99231e-08
2.64851e-08
-1.56804e-07
-3.06108e-08
3.40662e-08
-7.91404e-09
-1.43522e-07
4.57657e-08
5.45064e-09
3.55239e-08
1.18486e-09
1.47973e-09
-4.16877e-08
3.33176e-10
-4.52379e-10
1.65034e-09
2.34734e-11
1.24965e-09
4.11063e-16
-9.83313e-17
4.58199e-09
4.58199e-09
1.06607e-17
5.08139e-16
1.15034e-16
9.53269e-16
-1.06438e-24
-2.65798e-22
-6.30724e-23
1.35284e-21
1.96187e-21
1.71031e-20
-4.48557e-21
8.96517e-26
9.30203e-27
8.32482e-27
2.16656e-27
1.02288e-27
4.38291e-30
8.73924e-31
1.61836e-31
-1.65422e-30
4.90319e-35
4.18157e-34
-1.13893e-33
1.85607e-38
1.13708e-37
-3.43813e-37
6.79619e-42
1.30748e-41
-1.42466e-39
2.64154e-45
2.92152e-45
-3.73482e-43
1.06622e-48
8.79467e-49
6.58254e-47
4.33622e-52
3.44843e-52
2.18742e-49
1.80069e-55
6.71838e-56
1.17556e-51
7.49967e-59
5.55078e-60
5.32731e-57
3.02648e-62
5.85249e-63
2.25094e-58
1.29807e-65
9.08506e-67
6.34675e-63
5.26938e-69
-2.66495e-70
2.3586e-65
2.02917e-72
-1.46631e-74
9.9862e-69
1.01688e-75
7.90391e-77
-7.71892e-72
8.41619e-79
1.8982e-80
-4.41237e-75
5.4608e-82
9.31226e-84
-1.59666e-77
1.73771e-85
1.11271e-87
-1.33574e-80
8.69306e-89
-4.46699e-91
1.14491e-87
1.0925e-91
-3.86407e-94
-7.97163e-87
2.80218e-95
-1.01863e-96
4.07133e-91
4.57045e-98
6.73087e-100
-9.46153e-95
2.60851e-101
7.0451e-102
-9.47682e-97
6.3609e-105
-6.60481e-106
1.20156e-99
6.90322e-108
-8.43185e-112
8.26806e-103
9.88096e-111
5.24154e-112
1.81382e-106
2.39249e-114
-2.14544e-116
-6.72945e-111
4.70491e-117
-3.39707e-119
-3.51906e-112
2.58612e-120
2.22076e-122
-1.82496e-117
2.27365e-123
2.92532e-125
-1.18971e-118
5.04125e-127
-7.87693e-130
9.73682e-123
9.45337e-130
2.07827e-131
6.48336e-125
3.83551e-133
-2.02571e-134
-4.41847e-128
1.41251e-136
-4.61458e-138
-1.24082e-132
3.99653e-140
1.65977e-142
-3.13253e-135
1.32993e-143
2.8611e-145
-1.66545e-139
4.98623e-147
-7.46546e-149
-7.65767e-147
1.87076e-150
-5.85025e-151
5.10665e-150
-1.13508e-153
-6.57629e-154
4.62777e-153
6.23181e-159
-4.1105e-152
-6.95749e-08
2.55622e-08
3.21566e-07
1.10364e-07
2.81534e-08
1.07673e-08
8.95127e-08
9.33683e-08
1.02041e-07
2.68609e-08
2.917e-08
2.83332e-08
1.38905e-09
-2.39777e-09
3.80098e-08
6.09074e-08
3.10959e-08
1.11987e-07
9.97126e-08
-3.07922e-09
-4.52465e-08
2.408e-08
2.55189e-08
-4.5713e-08
-3.28196e-08
-2.06886e-08
-2.50443e-08
6.51916e-08
5.64062e-08
-3.39629e-09
-1.00543e-07
5.73422e-08
-7.38008e-09
3.90982e-09
-5.86907e-09
7.31405e-10
8.10058e-09
-4.34489e-11
1.77501e-10
-2.47512e-08
-6.63088e-11
-2.46814e-08
2.53354e-16
-8.17791e-19
3.22594e-08
3.22594e-08
-9.54218e-19
2.53408e-16
2.53675e-16
2.5337e-16
1.51895e-24
-2.70773e-22
2.36413e-23
9.82397e-22
9.92608e-22
9.30985e-22
7.89539e-22
-2.80877e-28
-1.85021e-26
-1.81538e-27
-5.50367e-29
-2.77931e-28
1.1446e-31
3.28778e-31
-1.1327e-30
1.70357e-33
7.02886e-35
-1.28849e-34
-3.89541e-36
4.23628e-39
-2.22704e-38
-3.9765e-40
1.36911e-42
-6.32459e-42
-8.46861e-43
5.45134e-46
-2.23729e-45
3.03974e-45
2.17942e-49
-3.61408e-49
-1.84347e-49
8.69812e-53
-9.45895e-53
-1.40075e-52
3.46512e-56
-2.57673e-56
4.81973e-54
1.37563e-59
-2.40879e-59
3.23082e-58
5.44931e-63
-5.53507e-64
4.65937e-61
2.1565e-66
-1.04794e-66
3.33232e-64
8.51712e-70
4.34799e-70
-3.2669e-67
3.41261e-73
7.29733e-74
-8.32584e-72
1.37816e-76
3.09635e-77
4.02247e-74
5.28195e-80
9.36841e-81
-7.35752e-78
2.0696e-83
-9.62494e-84
7.30489e-80
8.12667e-87
-2.41285e-87
-5.86112e-83
3.18992e-90
-7.34319e-90
2.20046e-86
2.2751e-93
-1.76642e-93
5.15837e-90
3.91135e-96
9.75507e-97
-8.24287e-93
5.04923e-100
-9.36469e-100
-1.92537e-96
1.72029e-103
-1.58073e-102
-3.13621e-99
1.40079e-106
-2.27018e-106
-1.07949e-103
3.92165e-109
-3.94733e-110
-9.30545e-106
4.67802e-113
4.66693e-113
2.85603e-108
2.19243e-116
1.5006e-115
-8.9334e-112
5.7429e-120
-8.62739e-120
1.01707e-115
4.98451e-123
2.09432e-122
1.93089e-123
1.64435e-125
9.90317e-127
-3.22451e-122
1.61973e-128
-3.78605e-129
1.41978e-125
2.08487e-131
1.24073e-131
-1.75404e-127
3.27628e-135
2.37876e-134
-1.38388e-130
9.51434e-139
-5.78122e-139
-5.66157e-134
4.96845e-142
-2.01849e-141
8.28099e-138
7.65216e-145
-8.03772e-145
-3.60421e-140
1.60213e-147
2.7497e-149
-2.1077e-144
1.90241e-150
-2.39309e-150
-4.86081e-147
2.36377e-153
-4.22414e-154
-9.93473e-150
-3.25714e-157
4.12717e-155
1.63975e-08
-3.42939e-08
1.45363e-08
1.76814e-08
1.87812e-08
2.41538e-08
1.82921e-08
2.13828e-08
1.00718e-08
5.5469e-08
2.63737e-08
2.36192e-08
4.83241e-08
1.32548e-08
2.67857e-08
1.51713e-08
3.01705e-08
3.28026e-08
-2.40247e-08
-3.18568e-09
-3.30384e-08
-1.05318e-07
-9.261e-08
2.18933e-09
1.49574e-09
5.11582e-09
5.99994e-10
-1.14518e-08
-4.27734e-11
-4.8719e-12
1.79742e-08
1.39155e-11
1.7973e-08
2.60572e-22
-1.89172e-20
3.67593e-20
-3.79463e-19
-3.65971e-19
-9.10572e-19
-1.72064e-18
-1.71304e-18
-1.77642e-18
-1.71383e-18
-3.93373e-26
-3.3946e-25
3.50665e-27
-6.65713e-30
2.25135e-28
-1.11022e-30
6.34143e-31
-1.68408e-32
6.46054e-35
-2.6387e-35
8.2114e-39
9.81716e-39
2.9218e-42
-2.93052e-42
1.16648e-45
-2.69483e-44
4.67031e-49
-5.52125e-48
1.87065e-52
2.81618e-50
7.5097e-56
-9.11175e-54
3.01404e-59
-2.65236e-56
1.19388e-62
-8.86327e-60
4.74784e-66
2.55454e-63
1.88188e-69
-1.2354e-67
7.53166e-73
3.90064e-70
3.0628e-76
-1.80549e-72
1.2433e-79
8.19798e-76
5.15182e-83
1.02441e-78
4.63696e-86
-1.71547e-82
9.78654e-89
-4.11228e-85
2.08193e-92
-2.47828e-88
1.89705e-95
-2.40116e-91
9.92649e-99
3.65917e-96
6.62151e-102
-1.87594e-97
2.70752e-105
-2.24423e-101
7.90254e-109
-1.30657e-104
7.09473e-112
7.40145e-107
1.04504e-114
-1.3407e-110
6.44604e-118
5.39636e-114
2.45068e-120
-4.03679e-117
1.62328e-124
-5.20106e-122
4.44442e-128
-1.82357e-125
5.28444e-131
4.27476e-126
2.49275e-133
1.05435e-128
2.77876e-137
2.56813e-132
2.39252e-140
3.0533e-136
2.38559e-143
-4.41205e-139
7.92921e-147
-5.37336e-143
6.48367e-150
-2.28338e-146
1.03181e-153
2.45756e-149
3.55268e-152
7.81497e-08
7.27982e-08
2.39134e-08
5.54907e-08
2.45369e-09
6.05936e-08
3.20671e-08
-3.94962e-08
-7.16062e-08
-3.56783e-09
-4.15926e-07
8.23261e-08
6.00356e-07
8.75052e-08
-1.86992e-08
9.76968e-08
3.80211e-08
5.08699e-08
1.51143e-07
-4.13063e-07
-2.2991e-08
2.45691e-09
-1.63379e-07
8.91923e-09
1.56238e-09
9.08492e-09
8.77808e-10
-2.69139e-08
4.57859e-09
-2.47591e-09
-3.16851e-09
2.73725e-08
-6.14661e-11
-3.16649e-13
-5.10889e-13
4.82281e-08
4.82265e-08
-2.03112e-22
1.16314e-18
-1.80922e-21
-7.94608e-19
7.3755e-19
-1.73606e-18
4.60857e-19
1.84843e-25
-2.27271e-22
1.22139e-25
1.35964e-26
1.11328e-26
2.03472e-29
1.73507e-27
-1.48646e-28
6.39752e-31
1.52538e-29
4.78265e-30
8.53398e-33
1.02999e-32
1.64192e-32
1.53737e-34
1.47931e-36
6.69139e-36
5.41945e-37
6.51482e-40
1.8954e-39
8.82243e-41
4.70861e-43
1.09556e-42
-1.82324e-43
3.36353e-46
4.38632e-46
9.41947e-50
2.32715e-49
5.55792e-50
1.12647e-50
1.60409e-52
8.85167e-53
-3.53218e-53
1.10767e-55
3.68269e-56
2.91463e-56
7.65525e-59
5.02704e-59
1.96605e-59
5.28229e-62
-2.12901e-62
2.43638e-62
3.64175e-65
-4.20764e-66
-7.91746e-66
2.50944e-68
8.86086e-70
4.86465e-69
1.72778e-71
-3.2899e-72
-2.92098e-72
1.18883e-74
-4.64701e-75
-5.17469e-76
8.17191e-78
9.63577e-79
-2.97371e-79
5.61087e-81
-7.32785e-83
6.42981e-82
3.84633e-84
1.07512e-85
-3.00549e-85
2.63446e-87
-2.40256e-89
-3.70263e-88
1.8017e-90
1.40376e-91
4.94747e-91
1.23184e-93
1.88117e-94
3.83427e-95
8.41489e-97
4.4853e-97
-3.68826e-97
5.7384e-100
7.57379e-100
-1.83243e-100
3.91172e-103
-2.27683e-104
-3.2066e-104
2.66187e-106
7.61569e-109
1.71754e-107
1.80733e-109
1.367e-110
5.03384e-110
1.22633e-112
-7.64263e-116
-4.54225e-114
8.31756e-116
2.09054e-116
-5.08768e-122
5.63361e-119
-3.10263e-121
4.67572e-120
3.81096e-122
3.31588e-123
5.32673e-123
2.57424e-125
-4.37914e-126
-1.88913e-126
1.73683e-128
-1.23815e-128
6.06497e-129
1.16885e-131
4.50311e-132
5.68186e-134
7.85301e-135
-2.741e-137
5.29323e-136
5.26764e-138
6.57898e-139
3.67088e-138
3.53254e-141
-2.57584e-143
1.42609e-143
2.36409e-144
-8.63151e-147
1.0464e-145
1.4812e-147
-3.14785e-150
-2.4766e-149
1.85015e-151
1.4972e-151
-5.58545e-11
-3.1149e-07
5.60523e-08
8.61934e-09
2.02877e-08
8.5628e-09
1.37571e-07
7.6431e-10
2.52298e-08
-1.27502e-07
1.95115e-07
2.0333e-07
-1.159e-07
2.84308e-09
7.6706e-08
-1.02725e-08
-9.68884e-09
4.73328e-08
-4.3365e-08
-1.88354e-08
-5.05627e-07
-1.33249e-08
6.92806e-08
8.87396e-09
-4.44427e-07
-4.73788e-07
8.9965e-10
1.08855e-08
-1.0905e-08
-2.12638e-07
1.02101e-08
2.81789e-08
3.3675e-09
1.31823e-08
1.76332e-09
2.84114e-09
-5.03845e-08
-1.74924e-11
-1.03204e-11
5.59976e-13
7.51647e-12
4.84115e-12
-1.87075e-14
-6.44465e-21
-6.46987e-18
-4.09908e-19
2.41417e-18
1.81672e-17
1.37642e-18
1.57301e-17
-5.26064e-18
-5.59094e-18
-5.25924e-18
-1.17579e-23
-1.09722e-21
5.69384e-24
-2.13716e-27
-1.13562e-24
-3.26328e-27
2.05951e-28
-2.09194e-26
-4.36366e-31
1.61481e-30
3.45139e-30
-3.9687e-33
5.42428e-34
-2.41962e-33
2.29414e-35
8.57901e-38
-3.29249e-37
-3.96389e-39
5.27817e-41
-8.90692e-41
-8.86968e-43
3.82389e-44
2.0017e-43
-2.89663e-44
2.64808e-47
6.35258e-48
-1.4815e-48
1.81524e-50
-3.73201e-50
-4.17876e-52
1.24434e-53
5.41969e-53
1.05963e-53
8.53128e-57
-7.96684e-57
5.42171e-58
5.84611e-60
2.27196e-59
-1.80705e-60
4.00145e-63
-5.38948e-64
2.11439e-64
2.7394e-66
5.54507e-66
8.25982e-68
1.87421e-69
-7.09432e-69
1.1509e-69
1.28028e-72
-1.55934e-73
1.19376e-73
8.7436e-76
3.46792e-76
-2.69832e-76
5.96612e-79
3.22142e-80
1.50784e-79
4.06492e-82
9.5035e-84
-3.69708e-83
2.76676e-85
1.28924e-85
1.7765e-86
1.88192e-88
5.77758e-89
1.27153e-89
1.28109e-91
1.32455e-92
-1.87001e-93
8.70729e-95
2.79935e-96
2.91088e-96
5.90877e-98
-6.24073e-99
4.30601e-98
4.01144e-101
-1.53624e-101
-3.78624e-101
2.72009e-104
4.52294e-105
-2.2307e-105
1.84214e-107
6.84394e-107
-1.5462e-107
1.2468e-110
-9.57417e-111
2.51338e-111
8.42619e-114
2.4063e-114
3.68488e-115
5.68759e-117
-8.65463e-117
9.68801e-118
3.83171e-120
1.1438e-120
9.23361e-124
2.58201e-123
-3.68917e-123
-6.94939e-125
1.73639e-126
-5.87183e-126
1.61024e-126
1.16815e-129
-3.69899e-130
2.74246e-130
7.8627e-133
-9.14842e-133
1.28526e-133
5.26992e-136
4.53002e-136
-1.59184e-136
3.5295e-139
-6.22601e-141
3.73485e-140
2.36143e-142
-1.47008e-142
5.25434e-143
1.5771e-145
2.93527e-146
1.86094e-147
9.89221e-149
1.04463e-149
5.29971e-151
5.03394e-152
7.51417e-158
2.30882e-09
-1.92543e-07
-1.00081e-07
1.55717e-08
1.04798e-08
-7.60987e-10
1.13715e-08
9.68736e-10
-4.0348e-08
-5.26754e-08
6.40617e-08
-1.44486e-07
1.26358e-08
-3.69106e-08
2.26559e-08
2.08104e-08
2.11851e-08
2.01502e-08
2.13401e-08
4.43956e-07
1.92744e-08
2.1348e-08
1.75622e-08
1.84455e-08
-3.50271e-08
-3.0482e-08
7.60185e-08
-2.52038e-08
-9.35054e-08
-3.02889e-08
-3.15583e-08
-3.09314e-08
-3.35285e-08
-2.45097e-08
-2.54258e-08
-2.50377e-08
-4.00627e-08
-2.36919e-08
-2.22321e-08
5.38047e-09
1.0174e-08
1.30084e-07
1.13438e-07
3.09159e-07
8.12854e-08
6.47261e-08
-4.25378e-09
-1.03509e-08
2.91906e-09
5.82158e-09
-5.90499e-08
2.1011e-11
7.60395e-11
-7.74548e-11
-2.23177e-11
-2.60709e-11
1.64605e-10
1.1023e-18
-5.67138e-18
2.03727e-17
-4.63863e-18
7.36477e-19
8.90952e-18
1.27103e-18
3.58416e-17
1.72096e-23
-9.50662e-21
1.31117e-22
-5.34178e-20
-5.09924e-20
-5.60848e-20
-5.06227e-20
1.12149e-24
-2.7958e-24
1.28958e-26
1.10876e-25
8.04404e-27
-6.74685e-30
2.45849e-28
4.57911e-29
2.58012e-30
3.01614e-32
-9.832e-32
6.48574e-34
6.65314e-36
-1.65623e-35
-4.67689e-38
4.59937e-39
-4.82414e-39
-6.6479e-41
3.25203e-42
-2.06641e-42
3.01971e-45
2.21719e-45
-1.10116e-45
1.31263e-46
1.50577e-48
2.72249e-49
7.68439e-49
1.02252e-51
1.10311e-51
1.10111e-51
6.94472e-55
-1.87755e-55
-2.92609e-56
4.70987e-58
-5.66721e-59
4.28136e-60
3.1905e-61
-1.19874e-61
4.58804e-63
2.15805e-64
1.57887e-64
-8.50295e-65
1.45684e-67
-2.1835e-68
1.44526e-68
9.82633e-71
-7.69619e-71
-6.04478e-72
6.62465e-74
-1.97334e-74
-8.95739e-75
4.4584e-77
9.6301e-78
1.09328e-77
2.99404e-80
2.4937e-80
-4.72041e-83
2.01163e-83
3.44166e-84
-1.60814e-84
1.3507e-86
-4.1925e-87
2.07459e-87
9.05468e-90
1.56735e-90
2.07914e-95
6.06965e-93
9.17737e-94
4.44758e-99
4.05999e-96
1.67022e-96
9.01729e-97
2.70957e-99
6.94863e-100
-4.49684e-100
1.80822e-102
3.25363e-103
-8.0265e-103
1.20609e-105
-5.28065e-108
-4.45088e-106
8.03137e-109
6.80859e-110
6.93534e-110
5.3453e-112
2.34519e-113
4.58264e-114
3.55309e-115
4.18843e-116
1.31812e-118
2.35654e-118
4.93152e-119
-1.10776e-118
1.56252e-121
-9.3256e-122
-6.07663e-122
1.03431e-124
9.79768e-125
3.18599e-125
6.85325e-128
-8.1865e-129
-3.8901e-128
4.54174e-131
-8.85273e-133
-8.04061e-132
3.00332e-134
2.3217e-134
-8.97053e-136
1.98263e-137
6.65018e-138
-5.92515e-140
1.30676e-140
1.6403e-141
1.87817e-141
8.59969e-144
1.09079e-144
2.18374e-145
5.38056e-147
3.65743e-150
-2.40064e-149
-1.07219e-150
1.57044e-151
-1.45736e-08
-2.30088e-09
3.87249e-07
-2.37445e-08
-1.32851e-08
-9.56977e-09
1.3435e-08
1.03772e-08
1.79156e-08
1.80689e-08
-3.53767e-09
-1.24692e-08
-7.96273e-09
-1.45311e-08
7.82645e-09
8.78351e-09
1.74548e-08
-6.3067e-08
-3.63724e-08
-5.24592e-09
3.46291e-08
1.96345e-08
-1.94072e-07
2.51719e-09
-3.15166e-07
1.12126e-08
-5.30749e-09
-2.52314e-08
-2.99436e-08
-3.63331e-07
-1.62699e-07
-1.5757e-07
-5.85029e-08
-5.42876e-08
4.79165e-09
-1.75411e-08
7.4253e-09
1.37436e-09
6.04641e-08
-6.63146e-11
1.55513e-10
-9.17857e-11
1.83644e-10