/*--------------------------------*- C++ -*----------------------------------*\
| =========                 |                                                 |
| \\      /  F ield         | OpenFOAM: The Open Source CFD Toolbox           |
|  \\    /   O peration     | Version:  5.0                                   |
|   \\  /    A nd           | Web:      www.OpenFOAM.org                      |
|    \\/     M anipulation  |                                                 |
\*---------------------------------------------------------------------------*/
FoamFile
{
    version     2.0;
    format      ascii;
    class       volScalarField;
    location    "3.2";
    object      p_rgh;
}
// * * * * * * * * * * * * * * * * * * * * * * * * * * * * * * * * * * * * * //

dimensions      [1 -1 -2 0 0 0 0];

internalField   nonuniform List<scalar> 
8024
(
108.65
125.266
176.271
98.0497
110.44
97.9293
96.3541
91.7704
89.276
86.7292
84.2011
81.6941
79.2102
76.7688
74.352
71.9647
69.5917
67.2513
64.9367
62.6508
60.3689
58.1049
55.8712
53.6319
51.4163
49.2198
47.0299
44.8375
42.6644
40.5167
38.3672
36.2394
34.1404
32.0347
29.9229
27.8426
25.8151
23.8233
21.8399
19.8503
17.8891
15.972
14.0573
12.1169
10.2048
8.34014
6.4783
4.60871
2.7608
0.923034
75.6641
128.643
249.726
70.9189
94.4524
94.1037
94.6787
91.1943
88.8859
86.4951
84.0601
81.6066
79.1778
76.7488
74.3318
71.9545
69.5824
67.2641
64.9595
62.6525
60.3721
58.1073
55.864
53.6338
51.4072
49.2064
47.019
44.8396
42.6717
40.5189
38.3789
36.2519
34.138
32.029
29.9272
27.8491
25.8109
23.8073
21.8217
19.8494
17.8948
15.9773
14.0661
12.1367
10.2126
8.33033
6.46466
4.60554
2.76104
0.922656
89.6743
94.5869
86.2398
91.9422
93.2766
93.6351
94.3005
91.4814
88.578
86.3298
83.9527
81.5273
79.1139
76.7167
74.318
71.9341
69.5891
67.2792
64.9745
62.6502
60.373
58.1092
55.8556
53.6266
51.4091
49.1999
47.0088
44.8452
42.6825
40.5219
38.3843
36.2515
34.1187
32.0167
29.9342
27.8638
25.8101
23.7977
21.8183
19.8513
17.9033
15.9732
14.0536
12.1363
10.2223
8.32726
6.45898
4.60689
2.76369
0.922527
97.603
95.7755
96.5867
91.4289
97.5158
95.0564
94.5463
91.5068
88.5735
86.3163
83.9244
81.5304
79.1002
76.698
74.3116
71.9351
69.5872
67.2716
64.9499
62.6517
60.3821
58.1093
55.8609
53.6292
51.4208
49.2108
47.0081
44.8512
42.6764
40.5116
38.3844
36.2457
34.1122
32.0106
29.9418
27.8801
25.8162
23.7935
21.8186
19.8571
17.908
15.9608
14.0309
12.1259
10.2293
8.33011
6.45994
4.61431
2.77009
0.917912
98.3153
94.2065
101.322
100.034
99.588
94.924
94.5399
92.2554
88.6403
86.3482
83.9435
81.5241
79.1128
76.7016
74.3212
71.944
69.6011
67.2635
64.9286
62.6518
60.3848
58.108
55.8636
53.6333
51.4296
49.2258
47.0182
44.8465
42.6646
40.5038
38.3789
36.2397
34.1102
32.0093
29.9429
27.8891
25.8259
23.7961
21.8228
19.8676
17.9074
15.9482
14.014
12.1177
10.2276
8.33181
6.46715
4.62902
2.77901
0.915982
88.332
103.742
109.244
106.178
109.429
92.4454
94.391
92.0298
88.7001
86.44
84.0123
81.5745
79.1456
76.7309
74.3535
71.9702
69.619
67.2733
64.9305
62.6465
60.3841
58.1052
55.8652
53.6435
51.4351
49.2393
47.0287
44.8414
42.6576
40.4941
38.37
36.2306
34.1015
32.0105
29.9456
27.8907
25.8372
23.812
21.8272
19.8685
17.9011
15.9364
13.9986
12.1049
10.2211
8.33552
6.48329
4.65204
2.78935
0.9189
102.093
104.922
104.424
104.326
100.185
88.8667
94.2266
92.3338
89.0332
86.6343
84.1489
81.6649
79.2192
76.7792
74.3696
71.9804
69.6254
67.2845
64.9357
62.6365
60.3701
58.1052
55.8653
53.6524
51.4416
49.2381
47.0347
44.8377
42.6594
40.5075
38.3687
36.2203
34.0952
32.0171
29.9492
27.8857
25.8426
23.8229
21.8282
19.8587
17.894
15.9272
13.9963
12.1035
10.2162
8.33691
6.48917
4.65189
2.79307
0.927847
107.663
106.833
107.553
105.493
106.364
102.409
97.8139
93.3704
89.5668
86.9396
84.3062
81.7558
79.2725
76.8098
74.3675
71.9946
69.6231
67.2777
64.9517
62.6323
60.3626
58.1011
55.8631
53.6535
51.4413
49.2417
47.0359
44.8349
42.6693
40.5117
38.3643
36.2173
34.0991
32.0235
29.9469
27.8739
25.8419
23.8346
21.834
19.8532
17.89
15.9398
14.0082
12.1051
10.2154
8.33909
6.48753
4.641
2.79135
0.931954
106.033
106.139
102.367
142.072
113.915
104.507
100.618
94.053
89.8322
87.0932
84.3974
81.8148
79.2973
76.8219
74.3871
72.0002
69.6098
67.268
64.9488
62.6421
60.3563
58.095
55.8678
53.6486
51.4424
49.2422
47.0327
44.8335
42.6632
40.5113
38.3528
36.2178
34.1182
32.0284
29.9398
27.8645
25.8372
23.8373
21.8377
19.8517
17.8878
15.9486
14.0243
12.1074
10.2117
8.34039
6.48047
4.63025
2.78079
0.933033
107.546
107.627
107.501
108.22
103.884
102.492
99.6979
92.6995
89.7649
86.9909
84.3514
81.7756
79.2547
76.8095
74.3775
71.9782
69.6023
67.2634
64.941
62.6434
60.3563
58.0962
55.8709
53.6377
51.4314
49.2374
47.0336
44.8356
42.6611
40.5124
38.3546
36.224
34.1339
32.0359
29.9291
27.8496
25.8254
23.8325
21.8405
19.8503
17.8884
15.9633
14.0435
12.1095
10.2042
8.34341
6.48362
4.61883
2.76601
0.923286
110.71
125.957
110.005
97.1976
94.7708
97.3175
96.2735
91.771
89.2759
86.7291
84.2012
81.6941
79.21
76.7689
74.3519
71.9645
69.5917
67.2514
64.9368
62.6504
60.3688
58.105
55.8712
53.6318
51.4164
49.2199
47.0298
44.8375
42.6643
40.5167
38.3671
36.2394
34.1405
32.0346
29.9229
27.8426
25.815
23.8233
21.8399
19.8503
17.889
15.9721
14.0576
12.117
10.2048
8.34036
6.47822
4.60865
2.76076
0.923111
82.8753
125.247
117.004
62.3033
93.6865
94.1153
94.5646
91.1944
88.8858
86.4951
84.0601
81.6066
79.1777
76.7488
74.3317
71.9544
69.5824
67.2642
64.9593
62.6524
60.3722
58.1074
55.8636
53.6335
51.4072
49.2064
47.0189
44.8396
42.6717
40.5188
38.3794
36.2519
34.138
32.029
29.9272
27.849
25.8108
23.8074
21.8216
19.8487
17.8948
15.9774
14.066
12.1364
10.2127
8.33035
6.46455
4.60553
2.76122
0.922609
88.7028
95.1113
116.587
88.042
92.998
93.4698
94.3108
91.4804
88.5794
86.3296
83.9527
81.5273
79.114
76.7167
74.318
71.934
69.5891
67.2791
64.9747
62.6502
60.3728
58.1092
55.8555
53.6266
51.4091
49.1998
47.0088
44.8452
42.6825
40.522
38.384
36.2514
34.1188
32.0167
29.9343
27.8638
25.8099
23.7977
21.8183
19.8511
17.9033
15.9733
14.0536
12.1362
10.2225
8.32722
6.45887
4.60693
2.76371
0.922523
96.1085
100.278
95.1987
98.1261
96.4939
94.8478
94.6298
91.5004
88.574
86.3156
83.9244
81.5307
79.1002
76.698
74.3116
71.9351
69.5872
67.2714
64.9498
62.6516
60.3821
58.1093
55.8609
53.6293
51.4206
49.2106
47.0083
44.8513
42.6766
40.5114
38.3844
36.2456
34.1122
32.0106
29.9418
27.88
25.8161
23.7935
21.8186
19.857
17.908
15.9608
14.0307
12.1259
10.2294
8.3301
6.45984
4.61432
2.77007
0.917774
97.4677
93.5635
98.5976
102.506
103.093
95.0687
94.5492
92.2557
88.6403
86.3483
83.9436
81.5234
79.1127
76.7016
74.3213
71.9441
69.6011
67.2635
64.9286
62.6518
60.3849
58.1079
55.8636
53.6334
51.4295
49.2259
47.0183
44.8464
42.6641
40.5038
38.379
36.2397
34.1102
32.0093
29.9429
27.8891
25.8259
23.7961
21.8229
19.8676
17.9074
15.9478
14.0139
12.1179
10.2276
8.33179
6.46707
4.62898
2.77893
0.916034
104.674
107.67
108.999
105.516
110.357
92.3352
94.3667
91.9337
88.6998
86.44
84.0121
81.5744
79.1457
76.7309
74.3535
71.9701
69.619
67.2734
64.9304
62.6466
60.384
58.1052
55.8651
53.6436
51.4352
49.2393
47.0286
44.8412
42.6575
40.4942
38.37
36.2304
34.1013
32.0104
29.9458
27.8907
25.8373
23.812
21.8272
19.8685
17.901
15.936
13.9986
12.105
10.2209
8.3355
6.48327
4.65207
2.78907
0.918867
102.07
106.688
106.08
104.228
99.5248
89.808
94.0349
92.3168
89.0335
86.6342
84.1489
81.6649
79.2192
76.7792
74.3696
71.9804
69.6253
67.2844
64.9357
62.6365
60.3701
58.1052
55.8653
53.6524
51.4414
49.238
47.0346
44.8377
42.6594
40.5074
38.3689
36.2202
34.0952
32.0171
29.9492
27.8856
25.8426
23.8229
21.8282
19.8587
17.8939
15.9271
13.9963
12.1035
10.2161
8.3369
6.48924
4.65195
2.79299
0.927962
105.928
106.547
107.02
105.2
106.284
101.882
97.7769
93.3652
89.5675
86.9395
84.3063
81.7558
79.2724
76.8098
74.3674
71.9946
69.6234
67.2775
64.9519
62.6323
60.3626
58.1011
55.8631
53.6535
51.4412
49.2419
47.0358
44.8349
42.6691
40.512
38.3642
36.2172
34.0991
32.0235
29.9469
27.8739
25.8418
23.8346
21.834
19.8531
17.8899
15.9398
14.0081
12.1051
10.2153
8.33906
6.48751
4.64098
2.79129
0.931919
105.879
107.727
114.591
122.111
111.169
104.513
100.654
94.0494
89.8329
87.0931
84.3974
81.8148
79.2973
76.8219
74.3871
72.0003
69.6099
67.2672
64.9488
62.6421
60.3563
58.095
55.8678
53.6486
51.4422
49.2421
47.0326
44.8334
42.6632
40.5114
38.3528
36.2176
34.1186
32.0283
29.9396
27.8645
25.8373
23.8372
21.8376
19.8516
17.8879
15.9488
14.0243
12.1072
10.2117
8.34034
6.48043
4.63022
2.78086
0.933032
107.605
104.558
110.815
111.934
103.217
102.973
99.5485
92.7005
89.7647
86.9909
84.3515
81.7755
79.2545
76.8094
74.3775
71.9785
69.6023
67.2633
64.9411
62.6434
60.3562
58.0962
55.8709
53.6377
51.4314
49.2373
47.0334
44.8356
42.6612
40.5123
38.3546
36.224
34.134
32.0358
29.9287
27.8498
25.8254
23.8324
21.8405
19.8503
17.8883
15.9633
14.0434
12.1093
10.2042
8.34337
6.48349
4.61881
2.76608
0.923275
114.482
120.551
114.2
91.2923
94.5866
97.3385
96.3016
91.7707
89.2759
86.7291
84.2013
81.6941
79.2098
76.7688
74.3521
71.9643
69.5916
67.2514
64.9368
62.6502
60.3687
58.1049
55.871
53.6316
51.4165
49.22
47.0296
44.8374
42.6642
40.5167
38.3672
36.2394
34.1405
32.0344
29.9226
27.8425
25.8149
23.8233
21.8399
19.8503
17.8888
15.9721
14.0576
12.117
10.2047
8.34028
6.47808
4.60854
2.76066
0.923095
86.4628
159.139
106.416
72.3824
93.4498
93.9472
94.5766
91.1939
88.8857
86.4951
84.06
81.6065
79.1776
76.7487
74.3317
71.9538
69.5823
67.2644
64.9593
62.6522
60.3722
58.1076
55.8634
53.6329
51.4071
49.2063
47.0187
44.8395
42.6718
40.5188
38.3794
36.2519
34.1379
32.029
29.9272
27.8489
25.8108
23.8078
21.8214
19.8487
17.8948
15.9774
14.0659
12.1356
10.2127
8.33036
6.46448
4.60548
2.7613
0.922417
88.4055
93.1832
90.853
90.3457
89.7345
93.3244
94.3009
91.4817
88.5793
86.3297
83.9526
81.5272
79.114
76.7166
74.3179
71.934
69.589
67.2785
64.9745
62.6501
60.3726
58.1091
55.8554
53.6265
51.4091
49.1997
47.0088
44.8451
42.6825
40.5221
38.3839
36.251
34.1189
32.0168
29.9343
27.8638
25.8097
23.7978
21.8182
19.851
17.9033
15.9733
14.0531
12.1359
10.2225
8.32715
6.45867
4.60689
2.76368
0.922421
96.07
98.2812
96.114
97.7526
97.885
94.4463
94.4517
91.5041
88.5735
86.3155
83.9243
81.5306
79.1001
76.6979
74.3115
71.935
69.5872
67.2712
64.9497
62.6514
60.3821
58.1093
55.861
53.6294
51.4204
49.2104
47.0084
44.8513
42.6766
40.5113
38.3843
36.2456
34.1121
32.0106
29.9419
27.8799
25.816
23.7935
21.8187
19.857
17.9079
15.9607
14.0307
12.1258
10.2295
8.33002
6.45974
4.6143
2.76997
0.917445
97.5127
94.605
108.425
100.452
101.075
95.3566
94.5443
92.2573
88.6397
86.3486
83.9435
81.5233
79.1125
76.7015
74.3212
71.9441
69.601
67.2634
64.9285
62.6517
60.3849
58.1078
55.8631
53.6334
51.4292
49.2259
47.0184
44.8464
42.664
40.5037
38.379
36.2396
34.1101
32.0092
29.9429
27.889
25.8258
23.796
21.8228
19.8678
17.9072
15.9471
14.0138
12.1182
10.2275
8.33173
6.46721
4.62892
2.77882
0.915935
97.7386
103.61
108.237
105.382
112.253
92.0751
94.3349
91.9416
88.6995
86.4401
84.0119
81.5744
79.1458
76.7308
74.3534
71.9701
69.6189
67.2734
64.9303
62.6467
60.3838
58.1052
55.865
53.6436
51.4352
49.2392
47.0285
44.8411
42.6575
40.495
38.3703
36.2302
34.1011
32.0113
29.9457
27.8906
25.8373
23.8119
21.8272
19.8685
17.9009
15.9356
13.9987
12.1049
10.2208
8.33543
6.48329
4.65207
2.78865
0.918843
105.237
108.397
107.081
106.516
121.725
92.0802
94.0287
92.32
89.0332
86.6342
84.1488
81.6648
79.2191
76.7791
74.3695
71.9803
69.6253
67.2842
64.9356
62.6365
60.3701
58.1051
55.8652
53.6523
51.4412
49.238
47.0345
44.838
42.6598
40.5074
38.3689
36.2201
34.0952
32.0171
29.9492
27.8855
25.8426
23.8228
21.8281
19.8587
17.8938
15.927
13.9962
12.1034
10.216
8.33683
6.48928
4.65175
2.79256
0.927909
107.164
107.048
106.83
105.122
106.617
101.733
97.796
93.3663
89.5671
86.9395
84.3061
81.7557
79.2723
76.8097
74.3673
71.9945
69.6236
67.2772
64.952
62.6322
60.3625
58.101
55.8634
53.6534
51.4411
49.242
47.0358
44.8348
42.669
40.5121
38.3642
36.2171
34.099
32.0234
29.9467
27.8741
25.8418
23.8343
21.8339
19.8531
17.8896
15.9398
14.008
12.1051
10.2151
8.339
6.48747
4.64093
2.79128
0.931831
106.085
106.629
102.607
102.172
110.864
104.078
100.648
94.0503
89.8325
87.0932
84.3973
81.8147
79.2972
76.8218
74.387
72.0005
69.61
67.2671
64.9488
62.6421
60.3562
58.095
55.8677
53.6485
51.4421
49.242
47.0325
44.8333
42.6632
40.5115
38.3527
36.2175
34.1193
32.0283
29.9395
27.8645
25.8373
23.837
21.8375
19.8515
17.8879
15.9488
14.0242
12.107
10.2116
8.34025
6.48034
4.63015
2.7808
0.932939
107.404
105.952
102.62
98.6162
99.4977
100.954
99.569
92.6998
89.7648
86.9908
84.3515
81.7753
79.2542
76.8093
74.3774
71.9787
69.6022
67.2632
64.9412
62.6433
60.356
58.0961
55.8708
53.6377
51.4314
49.2372
47.0333
44.8356
42.6612
40.5122
38.3545
36.2242
34.1344
32.0357
29.9282
27.8498
25.8253
23.8324
21.8405
19.8502
17.8883
15.9632
14.0432
12.1092
10.2041
8.34327
6.48331
4.61873
2.76611
0.923208
97.4725
97.0945
95.4617
97.2997
97.4924
96.0755
95.4982
94.8354
93.832
94.2459
94.0962
94.8754
93.6643
94.2504
94.1514
95.6359
94.1928
93.4945
94.155
95.3017
94.2032
94.2298
93.8344
94.4673
94.9569
94.2387
93.4791
94.3396
94.6369
94.7071
94.9115
95.014
94.5537
94.7507
94.6791
94.2227
95.2682
93.6502
92.3854
94.2772
95.2605
93.7086
93.0981
99.9287
97.1141
89.6394
93.2061
99.849
97.0996
98.3371
104.307
100.869
102.027
98.3306
104.295
100.88
101.42
103.822
100.852
104.985
101.421
104.229
100.877
100.501
100.069
98.7016
102.926
100.539
99.2487
98.6765
97.4764
98.0541
95.5005
97.2915
97.4584
95.043
95.5022
94.8794
93.6648
94.2497
93.9449
94.8773
93.6747
94.2493
94.1518
95.2174
94.1427
93.2802
94.1472
95.5682
94.1526
94.2271
93.3559
94.33
94.4398
94.2385
97.1531
94.3157
94.4397
94.727
94.8655
95.257
94.4733
94.7102
94.7104
94.1646
94.0485
93.8284
91.9931
94.325
93.5871
93.8377
93.2116
99.8085
97.1243
100.408
93.1223
99.6071
97.1123
98.3408
104.038
100.882
101.635
98.3226
103.975
100.891
101.419
105.079
100.884
104.22
101.421
102.025
100.891
100.545
99.245
98.6704
104.496
100.536
99.4417
98.6718
97.4527
95.0305
95.5056
97.6746
97.452
95.2985
95.4857
94.873
93.6721
94.2501
94.0351
94.8273
93.706
94.2434
94.1476
96.2147
94.3151
93.5861
94.1396
95.4855
94.2019
94.3138
96.135
94.3901
94.669
94.2362
95.5792
94.2778
94.4008
94.7971
94.3764
95.5807
94.6474
94.6349
94.811
94.1333
92.7869
93.8799
92.5295
94.4396
78.0144
93.7835
93.1081
99.4879
97.1162
96.7145
93.0064
99.5882
97.1247
98.3261
104.311
100.916
101.794
98.3407
104.096
100.888
101.423
101.314
100.888
104.188
101.422
101.376
100.857
100.53
99.6082
98.6836
101.573
100.489
99.9205
98.7083
95.4258
93.2552
95.9372
94.343
95.6591
94.0892
93.3896
96.5397
98.4365
97.7523
97.5547
97.3718
96.3511
99.0562
94.133
95.0662
93.4518
96.2691
94.1421
94.927
93.4607
92.9426
94.5346
93.3632
93.8059
93.0321
94.2891
93.176
93.9652
94.3491
94.0396
94.074
94.3482
93.5468
93.9278
93.0773
94.2763
92.6536
94.5736
93.0847
94.3147
92.6591
91.4896
95.9801
96.6726
92.665
91.6246
96.8689
99.2029
93.9322
93.698
95.4924
93.6156
93.7213
94.0389
93.9896
92.6275
94.3978
92.3598
94.3116
92.6372
94.3694
92.3467
94.9703
93.5129
96.4923
99.4928
94.9894
93.7688
96.3397
96.618
93.6238
97.5663
95.0429
93.9786
97.4811
95.8479
92.4707
94.9194
93.6655
94.6584
92.3861
94.8578
93.5401
97.8288
104.008
95.7836
98.372
97.6939
104.839
100.231
95.0021
94.3982
96.357
94.947
94.4023
96.2951
94.9987
94.0085
94.5601
94.1703
94.5371
93.9065
94.5204
94.1681
89.1122
124.373
99.6554
110.258
87.875
124.892
95.208
95.5036
93.6775
98.2641
92.4712
93.6845
96.6899
95.4961
94.0973
94.2147
93.8405
94.3434
94.1061
94.1923
93.7512
54.5168
104.425
103.475
99.2728
55.6792
105.943
103.88
90.4253
89.2372
91.0408
89.0317
89.2094
91.9884
90.4215
93.7057
96.8895
94.3765
94.0453
93.5961
96.8877
94.2829
108.317
109.712
105.538
106.388
106.093
107.831
105.467
101.661
100.15
103.688
102.418
100.153
103.688
102.208
94.6651
100.161
95.9224
97.7918
94.6483
100.157
95.9313
107.074
111.684
106.136
116.242
108.806
110.455
106.939
104.84
103.034
104.715
104.14
103.061
105.469
103.076
96.0556
100.171
96.5088
100.652
96.0675
100.03
96.5079
104.862
103.805
102.34
103.398
103.726
104.37
102.168
100.265
101.167
102.234
102.491
101.187
102.223
100.34
95.735
97.2101
94.9099
99.5621
95.7446
97.1431
94.9196
95.4132
92.3009
93.3436
94.5982
95.3405
92.3083
93.3697
96.2452
97.3655
98.1856
97.3052
96.5371
96.4287
97.0909
94.141
94.9241
93.4596
96.2936
94.1409
94.9202
93.4593
92.86
92.9107
93.2092
93.5548
92.8594
96.2925
93.2369
94.0866
94.3228
93.5613
94.1871
94.0379
94.3358
93.5605
93.0833
94.3183
92.6558
94.5654
93.0831
94.315
92.6559
92.6571
96.5396
94.6075
93.6163
95.2237
95.8349
104.708
93.8666
93.7193
94.0008
95.2616
93.9038
93.749
94.2745
92.6359
94.3623
92.3437
94.3021
92.6357
94.3564
92.344
95.1406
93.4052
99.7766
97.3239
95.9198
93.9866
97.5221
97.0709
94.3453
101.526
95.1884
97.0654
94.3558
102.148
92.3797
94.7754
93.5102
94.5558
92.3805
94.7658
93.5144
99.1836
104.145
97.5993
103.224
99.1554
104.089
96.4588
95.0199
94.3854
96.3507
95.124
94.9971
94.3934
96.3597
93.8874
94.5548
94.1713
94.5316
93.8895
94.535
94.1707
87.8302
127.091
103.294
111.286
84.4023
159.603
156.761
95.4656
93.6214
98.3159
92.2689
95.4474
93.6305
97.4079
94.1135
94.1934
93.7417
94.3604
94.1127
94.223
93.7402
58.6029
103.196
108.274
104.631
226.23
103.261
103.788
90.003
89.1986
92.9525
90.9918
90.0451
89.1683
95.7683
93.602
96.9001
94.2775
94.0235
93.6061
96.8821
94.2766
106.111
107.856
105.361
106.243
106.186
108.172
105.371
101.676
100.121
103.659
101.754
101.675
100.127
103.454
94.6481
100.157
95.9274
97.7887
94.6495
100.157
95.9278
106.345
110.807
105.966
110.798
104.299
107.569
101.673
105.514
102.985
104.751
104.728
102.701
102.959
103.188
96.0657
100.029
96.5065
100.654
96.0657
100.036
96.5066
104.267
103.694
102.065
109.999
101.733
101.104
102.309
100.061
101.16
102.807
103.148
100.184
101.319
102.696
95.7426
97.1394
94.9183
99.5563
95.7423
97.1402
94.9184
95.3576
92.3582
93.3782
96.6187
95.5788
92.4344
93.676
96.4817
97.3444
96.3564
97.4349
96.4669
96.3387
97.4124
94.1419
94.9242
93.4602
96.3846
94.1326
95.0578
93.4512
92.871
95.4107
93.5531
94.393
93.2743
98.8988
94.0121
94.2303
94.3524
93.5962
94.0004
94.1304
94.6024
93.5959
93.0843
94.3091
92.6597
94.6761
93.0757
94.2718
92.6547
95.3046
95.0111
102.889
93.2454
97.16
96.5526
102.099
93.9283
93.7538
94.5447
93.5869
93.8969
93.7267
94.4505
92.6377
94.368
92.3452
94.2882
92.6281
94.3842
92.3589
95.8148
91.1154
97.0909
97.8601
96.5952
93.3329
98.7945
91.8418
95.1188
94.4619
94.2016
100.619
94.6938
94.0848
92.3867
94.742
93.4819
94.5494
92.4735
94.7938
93.6458
99.4212
104.445
97.3426
108.09
99.7987
107.269
97.4028
95.2806
94.4008
96.2275
95.6404
95.2217
94.4713
96.2844
93.9013
94.5199
94.1667
94.5527
94.0097
94.5797
94.1704
83.1975
172.082
87.2875
108.644
83.418
28.0969
150.145
95.4745
93.711
96.2582
92.9544
95.4657
93.7075
96.9258
94.1071
94.19
93.7516
94.3822
94.0985
94.1997
93.8392
115.836
105.017
107.416
79.1909
132.076
102.831
105.188
90.0626
89.1703
86.1915
103.661
89.8726
89.3738
87.4018
93.6074
96.9001
94.2825
94.0391
93.6925
96.9105
94.3741
106.341
108.079
105.552
106.433
108.666
108.609
105.516
101.358
100.064
103.609
101.845
101.362
99.9835
103.777
94.65
100.156
95.9316
97.8261
94.6667
100.158
95.9223
105.212
107.713
101.57
110.681
103.825
108.47
101.537
104.151
102.878
106.898
104.159
104.312
102.87
115.372
96.0678
100.046
96.508
100.616
96.0552
100.189
96.5088
100.779
94.6963
101.684
100.065
101.447
112.554
102.47
100.102
101.145
100.075
101.036
100.089
101.068
100.19
95.7439
97.1399
94.9198
99.701
95.7342
97.2071
94.9102
96.6295
97.5558
96.8927
97.4723
96.8917
96.6195
97.5522
96.1533
105.178
94.8625
96.0825
101.037
94.847
96.9948
96.0498
95.9296
95.1296
95.4709
95.8986
95.139
96.0497
96.8669
97.6285
97.3339
97.64
96.8261
96.6552
97.7211
96.6373
97.485
97.5552
96.8773
96.8942
96.636
97.5547
96.1343
97.302
99.6228
94.8731
100.045
94.888
95.8391
96.044
95.4853
95.8721
95.1406
95.911
95.1403
96.0351
94.1489
94.6344
94.4502
94.8608
94.6387
94.4524
94.1436
94.1204
93.728
93.8504
93.6311
93.6909
93.8315
94.0896
94.0657
94.2919
94.0706
94.2525
94.3005
94.0707
94.0643
93.9691
94.3236
94.3157
93.5386
94.3332
93.5357
93.9905
94.1538
94.8731
94.6401
94.4645
94.6401
94.4559
94.1477
94.124
93.6444
93.6773
93.8861
93.7168
93.8844
93.9906
94.1207
94.2507
94.3011
94.0906
94.3003
94.0899
94.0844
94.2777
94.0897
94.2274
94.1539
94.1059
94.2129
94.3143
93.6757
100.531
94.4363
94.7885
96.2992
94.3993
94.9371
94.4613
94.3212
94.431
94.1843
94.3832
94.4302
94.5164
93.9675
93.6556
93.6959
93.9121
93.6894
93.8997
93.9457
94.2787
94.1572
94.1016
94.205
94.1301
94.2727
94.316
94.1998
95.0003
96.5114
94.4959
96.3937
94.5215
94.137
94.6804
94.4395
94.2286
94.4227
94.238
94.4472
94.608
94.726
94.565
94.2626
94.2124
94.7478
94.2944
94.5264
93.1171
108.407
94.0763
93.6809
103.224
94.0347
93.3165
93.9003
94.217
94.4203
94.417
94.2286
94.4056
93.9351
97.8319
95.0441
95.3544
102.141
94.1769
97.3999
97.2009
94.4666
94.2434
94.3955
94.2285
94.3505
94.2409
94.6535
93.8907
94.2662
105.167
94.0451
103.965
94.043
94.8677
94.0425
94.395
94.1808
94.3876
94.2061
94.3971
93.926
94.8225
94.4002
94.6829
94.5746
94.4112
94.6293
94.9198
94.8423
96.4685
94.8146
94.701
95.2294
94.7796
94.9511
94.5528
94.4177
94.7335
94.702
94.3634
94.6203
94.6613
94.9995
94.9917
94.419
96.5534
94.4214
96.5821
95.035
94.7936
94.5815
94.3623
94.6439
94.5094
94.6516
94.8055
94.8349
94.7324
95.2464
94.7343
95.2522
94.7575
94.8364
94.5348
94.7075
94.4434
94.6413
94.6485
94.5848
94.6291
94.5728
94.0135
94.5254
94.2989
93.9802
94.5201
94.6535
96.4181
103.601
91.7055
95.7517
105.839
91.6576
96.6167
94.5892
94.4901
92.7894
93.8024
94.3852
92.843
94.6176
95.505
92.3904
93.6321
96.7128
93.6527
96.5946
95.6618
94.5724
94.2632
94.0098
94.5264
93.9821
94.5389
94.5841
96.4512
94.8881
100.829
91.4653
100.603
91.5681
96.7421
94.622
93.7215
94.3983
92.6763
94.4183
92.8957
94.6223
92.7674
92.1187
94.0731
93.0852
91.9224
94.0626
92.7972
95.6517
97.7838
98.1272
99.942
97.5105
98.1078
95.0331
95.1882
95.5472
97.4962
97.1024
95.5546
97.5303
95.2049
90.3615
89.3879
89.1889
91.7153
89.1856
90.2808
90.3873
92.7723
93.0865
91.62
94.0466
91.8559
94.0536
92.7765
95.4228
99.8857
98.0377
98.1278
97.1039
98.1302
95.3908
95.216
97.1409
95.5219
97.4941
95.556
97.6119
95.2208
100.249
99.0093
99.4894
98.3229
99.0092
99.4915
100.617
102.361
103.975
102.599
104.247
103.78
102.62
102.364
101.127
100.223
101.584
100.867
100.224
101.593
101.145
101.699
102.131
100.132
103.583
100.134
103.643
101.711
100.342
98.3461
99.0142
99.4641
99.0111
99.4857
100.327
102.346
104.205
103.681
102.583
103.763
102.587
102.295
101.132
100.922
100.213
101.58
100.227
101.597
101.134
103.28
102.047
101.744
101.422
102.053
101.749
102.92
102.029
105.361
101.607
103.19
104.373
101.601
104.076
102.174
101.785
101.408
100.864
101.798
101.412
102.211
101.816
104.058
102.974
106.071
102.989
105.977
103.281
103.457
101.423
102.028
101.748
102.072
101.751
103.461
103.505
105.236
104.133
101.83
104.875
101.802
102.014
102.166
100.87
101.805
101.404
101.802
101.41
102.394
100.088
100.97
99.7256
100.517
100.972
99.7377
100.081
99.7714
102.374
99.1179
99.2595
100.27
100.755
98.6666
99.341
99.0879
98.5734
98.691
99.0945
99.3345
98.5858
100.285
102.854
101.184
101.45
101.205
102.081
100.172
100.086
100.529
100.966
99.755
100.97
99.7552
100.08
100.199
99.2247
99.8511
98.7586
99.8399
99.3478
98.7043
99.3391
98.6856
99.103
98.5892
99.0977
99.3343
98.587
96.6398
97.5511
96.8647
97.4658
96.6367
96.8632
97.5521
95.8717
99.4272
94.8548
95.2679
95.9181
99.2961
94.9103
96.0414
95.9576
95.1405
95.5042
96.05
95.9443
95.1399
96.2941
97.2822
97.2958
96.3339
96.4135
96.3955
97.264
96.6419
97.4586
97.5525
96.8724
96.8675
96.6435
97.5508
96.2455
95.0694
101.28
94.7029
99.3461
94.7172
96.1214
96.0543
95.4994
95.935
95.1466
95.9315
95.1416
96.067
94.1502
94.6405
94.4721
94.8796
94.1471
94.6408
94.4754
93.9794
93.7032
93.8504
93.668
94.027
93.7024
93.8542
94.0756
94.3016
94.0637
94.2486
94.0709
94.3007
94.0641
94.1006
94.0621
94.3082
93.5783
94.3433
93.5709
94.1419
94.1505
94.8782
94.643
94.4761
94.6422
94.4768
94.1533
94.0049
93.6883
93.6953
93.8803
93.6985
93.8582
94.2145
94.077
94.2495
94.2982
94.0608
94.2999
94.0648
94.0781
94.2481
94.0862
94.2466
94.1504
94.2676
94.0856
94.2121
94.1439
96.695
94.5146
96.3845
94.1541
96.6507
94.5098
94.6697
94.2607
94.4684
94.1457
94.6383
94.2149
94.4315
93.8721
93.3967
93.7522
94.5075
93.7517
94.3584
93.8942
94.2526
94.1503
94.0452
94.1784
94.0609
94.2123
94.2254
94.1157
95.3459
97.3417
94.4727
96.8149
94.498
94.0922
94.6822
94.1299
94.2226
94.5359
94.256
94.4307
94.6359
94.5835
94.4547
94.2709
94.1981
94.6577
94.3792
94.191
94.7904
105.95
94.0183
96.4594
94.8172
105.55
93.9773
93.9604
94.2068
94.3863
94.3199
93.9526
94.1745
94.3838
105.822
96.8284
95.3058
94.74
94.5199
94.8301
97.8168
94.652
94.2175
94.4084
94.1189
94.3728
94.144
94.3101
94.7889
95.1699
105.63
94.1212
105.473
94.0282
94.6345
93.9686
94.3125
94.2117
94.4257
94.191
94.4
93.9774
94.8244
94.3615
94.7282
94.4162
94.806
94.3732
94.6541
94.8189
95.25
94.7359
94.7982
94.8229
95.2577
94.7449
94.5759
94.472
94.6147
95.2682
94.574
94.4762
94.6082
95.0646
95.1332
94.4157
96.2702
94.4924
96.28
95.1465
94.8226
94.4966
94.41
94.6812
94.3639
94.6764
94.8235
94.8203
94.7174
95.4082
94.813
95.282
94.7636
94.8227
94.5714
95.4201
94.5444
94.6302
94.7065
94.6182
94.577
94.6311
93.9953
94.5461
94.173
94.5966
93.9767
94.5126
96.2834
101.565
91.3111
95.2681
96.2586
102.138
91.1297
94.6124
94.4452
92.6648
94.2026
94.5961
94.4183
92.6357
95.4869
92.1361
93.7367
96.368
93.6385
96.857
95.4556
94.6087
94.4271
93.9811
94.5283
93.9741
94.5425
94.5618
96.3331
94.2647
103.153
90.6548
103.567
90.9014
95.9507
94.6607
94.0551
94.4183
92.604
94.4001
92.6018
94.602
92.8072
91.6927
94.07
93.0737
92.7784
91.6314
94.0598
96.416
95.935
98.1379
99.7641
96.6312
98.7328
98.1927
95.2447
95.5162
97.4777
97.0965
95.2213
95.5441
97.4819
89.9351
89.9802
89.1282
85.9754
89.1055
90.1457
89.8712
92.8184
92.9883
91.5595
94.065
91.6699
94.073
92.8189
95.4639
99.6894
97.0566
98.1006
97.5614
98.0944
95.8242
95.2343
97.1184
95.4981
97.4833
95.5287
97.463
95.2354
100.287
99.0148
99.4737
98.3253
100.327
99.0141
99.4969
102.145
103.628
102.583
104.023
102.233
103.615
102.588
101.12
100.213
101.587
100.885
101.126
100.274
101.598
101.404
101.638
100.077
103.352
100.09
103.342
101.366
100.288
98.3401
99.0153
99.5125
99.0156
99.5149
100.301
102.13
103.981
103.813
102.585
103.638
102.593
102.134
101.144
100.889
100.209
101.601
100.212
101.618
101.113
103.389
102.043
101.749
101.419
102.702
102.018
101.753
102.515
103.621
101.52
102.933
103.972
116.802
101.598
101.785
101.806
101.394
100.891
102.274
101.806
101.38
109.264
104.294
102.898
104.135
102.926
104.233
108.608
101.456
101.419
102.018
101.776
102.025
101.765
101.501
107.832
102.632
113.429
101.561
112.941
101.848
106.248
104.421
100.893
101.811
101.36
101.806
101.367
101.68
100.071
100.96
99.7592
100.543
100.076
100.954
99.7641
99.7855
99.776
98.8662
99.2536
99.92
99.7416
98.9097
99.3328
99.1033
98.59
98.6663
99.3335
99.1115
98.5917
100.111
103.156
101.157
104.148
101.103
104.095
100.118
100.065
100.539
100.942
99.771
100.948
99.7694
100.058
99.6623
99.3106
99.819
98.9533
99.7768
99.5421
98.9347
99.3322
98.6657
99.1112
98.5942
99.1136
99.3315
98.5928
96.6448
97.5555
96.8785
97.4543
96.6445
96.8863
97.5572
96.1592
93.0361
94.9676
95.0238
95.9981
93.2273
94.9815
96.0779
95.9886
95.1518
95.5011
96.0812
96.0348
95.1515
96.5196
97.5633
97.5843
96.5094
96.3323
96.5085
97.498
96.6448
97.4487
97.5494
96.901
96.8922
96.6339
97.5553
95.822
95.1443
94.5946
95.5347
93.4798
94.9642
96.5081
96.0754
95.4915
96.0177
95.1521
96.0341
95.1548
96.0671
94.1648
94.6454
94.4762
94.8578
94.1567
94.6454
94.4734
94.1806
93.6945
93.8863
93.6836
94.2124
93.6964
93.8854
94.0902
94.2984
94.0683
94.2495
94.0868
94.2979
94.0677
94.1294
93.9772
94.4825
93.6026
94.3627
93.6026
94.1398
94.1716
94.8462
94.6438
94.4563
94.6453
94.463
94.1711
94.1705
93.7194
93.6536
93.9492
93.6318
93.8894
94.4911
94.1002
94.2505
94.2887
94.078
94.2978
94.0737
94.155
94.2424
94.0459
94.2088
94.1434
94.2354
94.0438
94.208
94.7768
98.5569
94.447
95.7455
94.047
98.0773
94.4695
94.6502
94.2305
94.4598
94.1985
94.6236
94.2551
94.4595
94.0026
93.5497
93.8564
94.6309
93.6836
94.3641
93.9755
94.2802
94.1412
94.0459
94.1923
94.052
94.1983
94.2699
93.6847
95.5581
97.9227
94.3749
97.9304
94.3645
94.1951
94.6648
94.1965
94.2449
94.4462
94.2882
94.4509
94.6312
95.1205
94.4083
94.1061
94.2282
94.7649
94.4134
94.0684
98.7147
106.18
94.1608
96.0241
97.0604
105.549
94.0097
93.9749
94.2206
94.4312
94.2961
93.9842
94.1998
94.4397
94.818
94.4645
94.6005
95.8449
94.6354
95.04
88.7862
94.3052
94.2288
94.4545
94.0483
94.4332
94.0507
94.6226
94.6252
100.665
127.198
94.3174
104.803
94.0559
93.4244
93.9563
94.2884
94.2185
94.497
94.2058
94.512
94.0691
94.8855
94.3913
94.6889
94.3917
94.8161
94.3817
94.769
94.8136
95.2967
94.7462
94.5863
94.819
95.278
94.7376
94.5787
94.5455
94.6374
94.3878
94.5823
94.5228
94.6203
95.2789
95.524
94.4561
97.4251
94.4185
96.4982
95.4641
94.8111
94.653
94.3865
94.8285
94.3805
94.6598
94.828
94.8273
94.6399
95.3753
94.8147
95.3692
94.9607
94.825
94.632
94.3924
94.5641
94.6247
94.5243
94.6139
94.6232
94.7113
94.0091
94.5404
94.1722
94.5521
93.9684
94.5205
95.8916
103.532
90.6091
126.604
95.8696
103.805
92.5405
94.6049
94.4383
92.5763
93.8675
94.604
94.4117
92.5561
95.5565
92.8658
93.7303
99.4634
93.7055
98.0457
95.4719
94.6565
94.169
94.0274
94.5562
93.9749
94.5199
94.7202
95.9534
84.3219
105.839
90.4687
105.283
91.047
95.9328
94.5968
93.9028
94.5524
92.5553
94.4702
92.5508
94.5948
92.7988
91.6818
94.097
93.0738
92.8102
91.6405
94.0694
95.692
97.2767
98.0943
99.4454
96.2343
97.4266
98.1285
95.2636
95.4688
97.4738
97.1016
95.2389
95.5108
97.4763
89.6271
102.54
89.3309
89.6589
89.3072
87.9214
89.4891
92.7995
93.0869
91.8954
94.0872
91.81
94.0745
92.7965
95.389
99.442
99.3227
98.1187
97.6232
98.044
95.4358
95.2561
97.1029
95.6045
97.4959
95.5087
97.4836
95.2758
100.311
99.0144
99.5262
98.3387
100.306
99.016
99.5243
102.176
103.972
102.6
104.085
102.142
104.341
102.656
101.134
100.321
101.601
100.88
101.117
100.291
101.617
101.313
101.795
99.9674