/*--------------------------------*- C++ -*----------------------------------*\
| =========                 |                                                 |
| \\      /  F ield         | OpenFOAM: The Open Source CFD Toolbox           |
|  \\    /   O peration     | Version:  5.0                                   |
|   \\  /    A nd           | Web:      www.OpenFOAM.org                      |
|    \\/     M anipulation  |                                                 |
\*---------------------------------------------------------------------------*/
FoamFile
{
    version     2.0;
    format      ascii;
    class       surfaceScalarField;
    location    "3.2";
    object      phi;
}
// * * * * * * * * * * * * * * * * * * * * * * * * * * * * * * * * * * * * * //

dimensions      [0 3 -1 0 0 0 0];

internalField   nonuniform List<scalar> 
23929
(
3.50219e-10
1.71907e-09
2.34243e-10
2.0842e-09
-2.51255e-09
-3.97067e-11
-7.16358e-13
1.59539e-09
2.80715e-09
-1.20442e-08
4.15784e-09
2.11256e-09
-1.87402e-09
1.59624e-10
-1.23601e-09
8.66839e-10
-2.0135e-09
2.1642e-10
8.69528e-10
-2.0366e-10
1.34515e-10
4.49217e-10
-1.11891e-10
-7.01923e-11
2.89899e-12
4.51794e-11
2.71842e-11
1.41977e-09
5.56465e-11
-2.83226e-11
-2.51748e-10
-2.46594e-10
-4.21165e-10
-4.13582e-10
1.40934e-09
4.94917e-11
-2.76289e-13
1.40521e-09
2.63731e-11
4.94282e-13
1.39899e-09
1.64942e-11
2.53266e-14
1.39557e-09
9.97584e-12
-1.68385e-13
1.39366e-09
6.14084e-12
2.25521e-14
1.39039e-09
3.33364e-12
-4.62886e-13
1.38901e-09
2.2072e-12
1.27474e-13
1.38878e-09
9.43723e-13
3.73726e-13
1.38865e-09
8.9913e-13
-3.2098e-14
1.3877e-09
2.81615e-13
-3.53761e-13
1.38681e-09
1.06513e-12
1.71237e-13
1.38713e-09
1.57181e-13
1.43545e-12
1.38769e-09
2.7324e-13
2.03663e-14
1.38749e-09
2.22942e-13
-4.58082e-13
1.38714e-09
2.71248e-13
6.93503e-14
1.38733e-09
-3.9447e-13
7.09787e-14
1.38764e-09
1.62935e-13
-4.00403e-13
1.38734e-09
3.38958e-14
-1.04464e-12
1.38726e-09
1.32889e-13
-8.57088e-14
1.38732e-09
-6.99634e-14
3.54142e-14
1.38726e-09
-2.77107e-13
-7.45255e-13
1.3872e-09
2.13624e-13
5.60724e-13
1.3868e-09
-7.20688e-13
4.42882e-12
1.38722e-09
-7.85144e-13
2.73754e-12
1.38699e-09
-3.36679e-13
1.80699e-13
1.38748e-09
1.18728e-14
-2.951e-13
1.38745e-09
-4.94135e-14
2.30496e-14
1.3871e-09
5.12372e-14
-3.6809e-13
1.38675e-09
3.88384e-13
1.22598e-13
1.38661e-09
5.95435e-13
-5.01919e-13
1.38838e-09
-2.92217e-12
7.23119e-13
1.38764e-09
4.39146e-13
1.90093e-13
1.38766e-09
4.59166e-14
5.75511e-15
1.3879e-09
-2.01091e-13
1.59183e-13
1.3883e-09
2.51854e-12
-3.27802e-12
1.38677e-09
3.43845e-12
-1.72865e-12
1.38698e-09
-4.76505e-13
9.26356e-14
1.38697e-09
3.35567e-13
-3.92163e-13
1.38804e-09
-1.09829e-12
-1.6123e-13
1.3877e-09
2.09448e-13
1.49989e-13
1.38712e-09
-4.35794e-13
7.80028e-13
1.26794e-12
-1.14545e-12
-1.13699e-08
-1.02664e-08
-9.07012e-08
-4.77813e-09
-1.04699e-08
-4.24828e-09
2.29666e-07
-1.7556e-08
-5.83881e-08
-2.09535e-09
-8.57591e-09
-1.48186e-09
-8.34575e-09
2.42161e-09
3.93763e-09
-1.75407e-08
-1.88527e-10
6.75498e-09
3.10218e-09
5.89025e-09
3.4277e-09
-1.91751e-08
-2.23528e-09
-1.3399e-09
1.66089e-08
-6.40399e-10
-1.23933e-08
-1.6615e-09
-8.45303e-10
2.36074e-09
7.93522e-09
-7.78914e-09
-2.82353e-10
1.75795e-10
6.80696e-11
2.0125e-10
-1.62761e-10
-1.16788e-10
4.31139e-12
-7.37437e-12
8.8641e-11
3.12096e-11
1.38721e-09
1.95955e-12
-3.07922e-11
-2.37735e-10
-2.36857e-10
-4.022e-10
-4.11249e-10
-3.12377e-12
-2.85429e-12
-8.697e-12
1.38609e-09
5.23105e-11
-1.69469e-12
1.38968e-09
2.29403e-11
-1.47673e-13
1.38959e-09
1.66483e-11
-4.88255e-14
1.38943e-09
1.01684e-11
-3.25015e-14
1.3889e-09
7.04313e-12
-3.64413e-13
1.38844e-09
3.83295e-12
-2.75998e-14
1.38832e-09
2.34865e-12
-1.20866e-14
1.38736e-09
2.13575e-12
-2.25144e-13
1.38735e-09
1.00388e-12
-8.79437e-14
1.38748e-09
-2.91575e-13
4.57109e-13
1.38739e-09
-7.57587e-13
1.91577e-12
1.38718e-09
3.6663e-13
8.91602e-15
1.38717e-09
6.51904e-14
2.26995e-13
1.38709e-09
6.3275e-14
2.40969e-13
1.38719e-09
-6.49187e-13
8.08947e-13
1.38765e-09
-7.443e-13
-1.15484e-13
1.38742e-09
3.29477e-14
3.63929e-13
1.38736e-09
-3.78107e-13
4.71431e-13
1.38738e-09
1.03725e-13
1.15885e-14
1.38749e-09
-2.68796e-13
9.52077e-14
1.38663e-09
-1.05886e-12
1.64453e-12
1.3865e-09
-5.47535e-13
8.94362e-13
1.38686e-09
1.48964e-13
-1.23263e-12
1.38702e-09
5.11419e-13
-1.45659e-12
1.38784e-09
-3.006e-12
1.85674e-12
1.38791e-09
-2.33178e-12
2.28132e-12
1.3876e-09
2.54921e-13
5.20326e-15
1.38759e-09
-4.79238e-14
1.17435e-13
1.38794e-09
3.13136e-13
-2.60787e-13
1.38799e-09
1.71208e-13
3.9594e-13
1.38645e-09
-8.7668e-13
-4.86611e-13
1.38689e-09
2.80701e-13
-2.52848e-13
1.38696e-09
-4.39695e-14
3.88367e-14
1.38662e-09
1.56817e-13
-3.36568e-15
1.38697e-09
4.9894e-13
1.67545e-12
1.3884e-09
3.43895e-13
1.66772e-12
1.38793e-09
1.0883e-14
-1.77327e-14
1.38775e-09
1.62437e-13
3.51948e-13
1.38731e-09
-1.75451e-12
1.08658e-12
1.3872e-09
3.99963e-13
-8.098e-14
1.3875e-09
1.55757e-13
-8.94818e-13
-1.7513e-13
1.19165e-12
3.20197e-09
-7.87733e-09
2.92906e-08
-2.78869e-08
-2.11837e-08
1.55779e-08
2.61542e-09
1.63571e-09
2.42897e-09
-1.58688e-08
2.46393e-08
-8.37543e-09
-1.46194e-09
4.68828e-10
-6.91436e-09
4.59558e-11
1.37577e-09
2.33983e-09
2.71643e-10
-4.85766e-10
6.75231e-10
-1.78514e-09
4.21108e-09
-1.67856e-10
-4.07161e-09
7.73836e-09
1.57981e-09
-5.07871e-09
-2.7085e-09
5.53437e-09
1.65984e-09
-2.08149e-09
-2.40422e-09
-1.82531e-10
-8.01704e-11
-3.35671e-11
1.72959e-10
1.2331e-10
-5.89324e-11
-3.27396e-11
2.56195e-11
-6.35801e-11
1.29633e-10
-3.13171e-11
1.87184e-10
-6.28832e-12
-4.38616e-12
-2.97446e-11
-5.78869e-11
-5.56017e-11
1.35297e-09
9.38648e-12
-2.20548e-11
-2.37825e-10
-2.45106e-10
-3.93701e-10
-4.11349e-10
1.37002e-09
7.69232e-12
-1.77312e-12
1.3781e-09
8.08549e-12
5.07004e-13
1.38249e-09
6.20566e-12
-4.03096e-13
1.38498e-09
4.20592e-12
3.5687e-13
1.38597e-09
2.82786e-12
1.70121e-14
1.38644e-09
1.89307e-12
7.73185e-15
1.3873e-09
1.20515e-12
8.02362e-14
1.38732e-09
1.12933e-12
-1.29766e-13
1.3868e-09
8.32007e-13
-5.91237e-13
1.38682e-09
1.16968e-12
-1.93619e-12
1.3872e-09
-1.298e-13
1.11559e-13
1.38739e-09
3.99155e-13
-5.2615e-13
1.38763e-09
-1.85227e-13
-6.64189e-15
1.38723e-09
1.36719e-12
-1.6267e-12
1.38659e-09
-1.00998e-13
-2.42042e-15
1.38698e-09
-2.81411e-13
-6.95212e-14
1.38701e-09
-2.46673e-13
-1.5225e-13
1.38697e-09
8.11868e-14
7.99305e-14
1.38658e-09
-5.91648e-14
1.90375e-13
1.38713e-09
7.49021e-13
-2.35495e-12
1.38806e-09
1.03817e-12
-2.52227e-12
1.3877e-09
5.23398e-13
-2.67731e-14
1.38846e-09
7.18938e-13
-9.68123e-13
1.38717e-09
9.0155e-14
-1.80328e-12
1.38703e-09
1.7809e-13
-2.36503e-12
1.38721e-09
1.8321e-13
-1.0071e-13
1.38752e-09
-9.80476e-14
-2.44001e-13
1.38753e-09
-9.72216e-15
3.20661e-13
1.3874e-09
8.39166e-14
2.38746e-13
1.38713e-09
-2.52914e-13
-3.27349e-13
1.387e-09
1.04966e-12
-6.15294e-13
1.38694e-09
-1.21985e-14
4.83364e-14
1.38654e-09
4.20787e-13
1.42651e-13
1.38741e-09
-1.25934e-12
8.98318e-13
1.38843e-09
-2.19284e-12
1.51804e-12
1.388e-09
7.99904e-14
3.66021e-13
1.38793e-09
-3.22576e-15
2.29421e-13
1.38717e-09
-7.53312e-14
-9.28413e-13
1.38707e-09
5.4277e-13
-3.94407e-14
1.38691e-09
2.50952e-13
6.02476e-14
-1.57132e-12
6.99199e-13
7.54365e-09
-7.36484e-09
-6.6673e-09
4.94667e-09
-6.12095e-09
2.18271e-08
-8.43146e-09
4.06547e-09
-7.10807e-09
6.18461e-09
9.09786e-09
-3.3575e-08
1.58446e-08
-2.82317e-08
3.97485e-08
-2.22163e-10
-6.93748e-10
-8.23477e-10
-2.38281e-09
6.37143e-10
-3.2049e-09
3.34165e-08
1.62498e-09
-3.18559e-10
5.23743e-09
4.29756e-10
-4.02557e-09
1.02004e-09
-1.4841e-08
1.44342e-08
-2.04259e-08
-1.2342e-09
1.8943e-11
-5.82502e-09
-7.59833e-10
2.30883e-09
2.14777e-09
-9.91241e-10
-2.82827e-09
-2.45596e-10
-5.96833e-12
3.26954e-10
-6.75166e-10
5.99777e-10
2.91706e-11
1.86372e-11
-2.83182e-11
-6.1797e-11
4.23074e-11
-3.70429e-11
1.95279e-10
2.91191e-11
-3.87078e-11
-6.52068e-11
-6.93498e-11
7.23129e-12
-3.09945e-12
-6.32012e-12
-7.73767e-12
-4.16459e-12
1.36852e-09
4.85978e-12
-2.68174e-11
-2.45233e-10
-2.53538e-10
-4.06769e-10
-4.31621e-10
1.37321e-09
5.38411e-12
-2.34901e-12
1.37708e-09
3.89503e-12
3.45618e-13
1.38014e-09
2.74924e-12
4.0427e-13
1.38273e-09
1.62198e-12
9.70052e-15
1.38441e-09
1.18499e-12
-1.20525e-14
1.3853e-09
1.03964e-12
-1.12423e-14
1.38577e-09
7.65403e-13
-9.95632e-15
1.3863e-09
3.85896e-13
2.39661e-13
1.38662e-09
2.01259e-13
3.13968e-13
1.38737e-09
2.62388e-13
1.50754e-13
1.38716e-09
2.70496e-13
-2.02234e-13
1.38726e-09
1.64602e-14
2.64026e-13
1.38702e-09
4.2423e-14
9.04734e-15
1.38764e-09
1.73299e-14
7.22688e-13
1.38752e-09
6.92008e-14
-4.35712e-14
1.38717e-09
4.31311e-15
7.6318e-14
1.38709e-09
-8.06859e-14
-7.05518e-14
1.38724e-09
3.48651e-14
-8.09131e-14
1.38746e-09
8.13759e-13
-1.08872e-12
1.38796e-09
1.13713e-12
-8.84942e-13
1.38724e-09
1.22978e-13
1.61422e-12
1.38735e-09
4.44089e-13
-3.77631e-14
1.38699e-09
1.06796e-13
9.62916e-13
1.38701e-09
8.80883e-13
-8.10085e-13
1.38726e-09
-9.35981e-15
-4.80173e-14
1.38743e-09
-2.93354e-14
4.79849e-14
1.38733e-09
6.80484e-14
-4.81595e-14
1.38749e-09
-8.07608e-14
-7.38063e-14
1.38748e-09
1.60585e-13
-4.11772e-14
1.38726e-09
-3.94737e-13
3.83104e-13
1.38713e-09
1.12416e-12
6.96285e-14
1.38756e-09
-3.98859e-13
-2.7456e-14
1.38771e-09
1.34064e-13
1.5583e-13
1.38732e-09
6.64065e-14
-9.25414e-13
1.3873e-09
-1.73926e-12
-4.34714e-13
1.38767e-09
9.4299e-14
-3.81721e-13
1.38786e-09
-1.5013e-14
-1.79884e-13
1.38772e-09
1.36594e-12
-1.31346e-12
1.38663e-09
1.63103e-12
-2.26812e-16
1.38685e-09
-1.36629e-14
4.23388e-14
-1.94907e-12
5.32515e-13
9.93931e-09
9.01716e-10
-1.83638e-08
-6.65585e-10
3.56562e-10
1.85578e-09
-3.40248e-09
-1.44228e-09
-5.48761e-10
-5.36614e-09
3.04469e-09
9.23443e-09
4.02118e-12
5.40792e-10
1.75378e-09
-1.73275e-09
2.29447e-09
1.07323e-08
3.45368e-10
1.82493e-09
3.8429e-10
-1.52693e-08
-3.31768e-09
1.65225e-08
-1.74744e-09
-7.48702e-10
-3.59226e-09
-4.0966e-09
-6.58033e-10
-1.83116e-10
4.65217e-09
3.67936e-09
-3.76737e-09
1.6563e-10
-1.23014e-09
-4.22645e-10
-1.63017e-09
-1.44684e-09
-3.53439e-10
-1.1234e-09
4.28501e-10
-8.4674e-11
1.13301e-09
-2.32433e-10
7.3613e-12
-8.88565e-11
6.09227e-11
-3.06877e-10
-1.28355e-10
-2.02782e-10
1.05773e-11
-1.22883e-11
4.129e-11
2.19788e-10
2.12768e-10
2.34593e-10
1.84295e-10
-4.97425e-11
3.38709e-12
6.05883e-13
1.45676e-11
3.1182e-11
1.37387e-09
2.43273e-11
-2.74649e-11
-2.61266e-10
-2.46876e-10
-4.45922e-10
-4.118e-10
1.37384e-09
7.50747e-12
-2.06791e-12
1.37599e-09
1.4607e-12
2.99437e-13
1.37859e-09
2.68881e-13
-1.04181e-13
1.38241e-09
-3.08488e-12
9.16939e-13
1.38454e-09
-9.09032e-13
-2.09635e-16
1.38491e-09
1.46056e-12
-7.64405e-13
1.38528e-09
1.32996e-12
-9.13529e-13
1.38614e-09
-4.72967e-13
-3.37845e-15
1.38652e-09
-6.01792e-14
-1.26097e-13
1.38645e-09
9.86875e-14
2.27968e-13
1.3872e-09
-3.14259e-12
2.64641e-12
1.38719e-09
3.2699e-14
-1.43935e-14
1.38747e-09
3.30201e-13
-5.80639e-13
1.38731e-09
2.25598e-13
-3.88746e-14
1.38744e-09
-6.06824e-14
8.34773e-15
1.38749e-09
2.71629e-13
-2.90235e-13
1.38761e-09
-2.62913e-13
7.39257e-14
1.38767e-09
-1.36452e-14
2.77793e-15
1.38742e-09
1.75384e-13
8.88677e-13
1.38675e-09
3.95571e-13
1.40524e-12
1.38698e-09
8.65674e-13
-9.89259e-13
1.38719e-09
3.51322e-13
-1.24295e-13
1.38733e-09
3.20226e-14
-7.23695e-14
1.38736e-09
3.23482e-13
5.32703e-13
1.38733e-09
-1.27276e-15
3.63836e-14
1.38729e-09
1.14277e-14
8.51009e-15
1.3873e-09
5.04798e-15
7.31732e-14
1.38748e-09
-2.45556e-13
-6.12568e-15
1.38654e-09
9.519e-13
1.74201e-13
1.38689e-09
-4.7391e-13
-2.50656e-13
1.38771e-09
-2.09638e-13
5.29656e-13
1.38747e-09
-4.78075e-13
3.37803e-13
1.38746e-09
3.79052e-13
-2.19901e-13
1.38754e-09
-3.23582e-13
3.1978e-13
1.38753e-09
-1.27494e-12
-4.56556e-13
1.38777e-09
-6.08134e-13
4.59968e-13
1.38809e-09
-3.92208e-13
5.28298e-14
1.388e-09
-1.34854e-12
2.80815e-12
1.38664e-09
3.10237e-12
-1.14607e-13
1.38693e-09
-8.35379e-13
5.26494e-13
-1.77792e-13
-9.05454e-13
-7.23309e-09
-1.30514e-09
9.63092e-09
-1.63666e-09
2.32772e-09
-2.22059e-09
-4.33608e-10
7.59044e-10
1.98181e-10
-4.36404e-10
5.58321e-09
2.33183e-09
9.18066e-10
-6.53868e-09
8.04673e-10
-5.74144e-10
-5.30375e-10
-2.92833e-09
3.22818e-09
4.37926e-10
-1.31769e-10
9.62623e-10
3.60832e-10
-1.62961e-09
-4.05175e-10
1.11999e-09
-2.45992e-11
4.86948e-10
-1.17716e-09
-1.5489e-10
-5.72253e-11
1.85778e-10
1.89751e-11
-2.39641e-10
-7.99439e-11
-2.69862e-10
1.49904e-10
1.39927e-10
1.72483e-10
1.34497e-10
-9.49567e-11
-1.73525e-12
1.80817e-12
6.86649e-11
2.62189e-11
1.3355e-09
-1.60729e-11
-2.02406e-11
-2.36667e-10
-2.42567e-10
-3.91195e-10
-4.04418e-10
1.35956e-09
-1.45407e-11
-1.99995e-12
1.37074e-09
-1.02016e-11
5.02126e-13
1.37812e-09
-6.96398e-12
-1.20367e-13
1.38071e-09
-4.83553e-12
-8.23526e-13
1.38279e-09
-3.00323e-12
2.35638e-14
1.38509e-09
-1.60976e-12
7.87513e-13
1.38637e-09
-8.80315e-13
9.33958e-13
1.38643e-09
-5.53875e-13
3.64526e-14
1.38708e-09
-7.83941e-13
7.79582e-14
1.3875e-09
-1.47335e-13
-1.86947e-13
1.38676e-09
2.92349e-13
-2.7093e-12
1.38769e-09
-4.69202e-12
3.78824e-12
1.38724e-09
1.41882e-13
6.31747e-13
1.38732e-09
1.39783e-13
2.04054e-14
1.38716e-09
1.46828e-13
-2.92148e-14
1.38719e-09
-9.69764e-15
2.70029e-13
1.38779e-09
8.30077e-13
-1.67718e-12
1.38783e-09
-1.53004e-14
-3.48016e-14
1.38791e-09
1.23236e-13
-4.206e-14
1.38812e-09
2.96708e-13
-1.18961e-13
1.38621e-09
4.70366e-12
-1.94173e-12
1.38666e-09
-8.08176e-13
7.06606e-13
1.38715e-09
-6.09743e-13
1.55855e-13
1.38719e-09
1.5151e-13
1.4278e-13
1.3872e-09
1.04854e-13
-1.06772e-13
1.38697e-09
9.18408e-13
-6.59087e-13
1.38699e-09
1.04031e-14
-9.93284e-15
1.38673e-09
2.62916e-14
-6.98615e-15
1.38767e-09
2.44744e-13
-2.11909e-13
1.38724e-09
-4.51222e-13
4.20761e-13
1.3881e-09
-7.80505e-13
-2.69586e-13
1.38759e-09
2.60345e-13
-2.07874e-13
1.38759e-09
6.64809e-13
-2.67734e-13
1.38744e-09
1.38283e-13
-3.05388e-13
1.3869e-09
-9.66888e-14
-6.37299e-13
1.38683e-09
-1.1018e-13
-4.27407e-13
1.38666e-09
-1.23394e-13
-9.90047e-14
1.38665e-09
1.44491e-12
-2.79169e-12
1.38848e-09
1.12472e-12
1.41216e-13
1.38825e-09
-4.66943e-13
-1.35261e-13
-8.22882e-13
1.90632e-12
1.33172e-09
-1.69634e-09
7.3111e-09
-1.08268e-09
-1.54894e-09
-2.32111e-09
-1.80277e-09
7.6657e-10
-6.72287e-10
3.29176e-10
-4.8917e-10
6.57108e-11
4.67306e-10
-1.42071e-10
-1.99726e-09
8.08996e-10
2.46904e-10
-2.76076e-10
5.70274e-10
3.21923e-10
7.34802e-09
1.25186e-10
-2.66244e-08
2.11288e-09
4.24383e-09
4.05447e-09
2.06243e-09
9.15706e-10
4.95947e-09
2.0707e-09
-4.34635e-11
1.37283e-09
8.6284e-10
-6.48964e-10
-2.05134e-09
-4.14539e-10
-3.45602e-10
-9.71728e-11
1.67433e-08
-1.90177e-09
-7.39633e-09
-5.48264e-10
2.06695e-09
-8.05657e-10
-1.00315e-10
-6.12702e-10
8.0715e-11
2.01998e-11
-8.09774e-11
-2.47051e-12
-1.74687e-11
-4.19377e-11
-3.1421e-12
1.3122e-12
2.12394e-11
2.25282e-11
1.33447e-09
-7.09242e-11
-2.01348e-11
-2.38391e-10
-2.37876e-10
-3.95596e-10
-3.87618e-10
1.36277e-09
-4.10714e-11
-1.75752e-12
1.3746e-09
-2.2639e-11
6.17497e-13
1.3807e-09
-1.30352e-11
-8.68156e-15
1.38359e-09
-7.73601e-12
2.10411e-14
1.38521e-09
-4.6164e-12
-8.545e-16
1.38604e-09
-2.3904e-12
-4.48196e-14
1.38682e-09
-1.68177e-12
2.86692e-14
1.38721e-09
-9.47495e-13
8.10142e-15
1.38676e-09
-1.20627e-13
-2.10952e-13
1.38752e-09
-9.89476e-13
7.79786e-14
1.3877e-09
3.08219e-15
1.08293e-13
1.38703e-09
-2.08708e-13
-3.81181e-12
1.3873e-09
-2.11495e-13
9.2616e-14
1.38734e-09
1.88849e-13
-8.18393e-14
1.3875e-09
-2.45198e-14
2.89563e-14
1.38745e-09
1.36471e-13
-7.90123e-14
1.38691e-09
-3.07217e-13
1.68042e-12
1.3872e-09
-6.04997e-13
2.88433e-13
1.38754e-09
-2.43763e-13
1.1089e-14
1.38588e-09
4.49663e-12
-2.55483e-12
1.38756e-09
-2.82033e-13
3.29738e-12
1.38759e-09
-2.77237e-13
-5.57947e-13
1.38731e-09
-1.39467e-13
-1.8134e-13
1.38727e-09
1.46545e-13
6.1931e-14
1.38726e-09
2.07483e-14
1.10515e-13
1.38749e-09
3.03797e-14
6.72006e-13
1.3874e-09
2.54123e-13
-1.40788e-13
1.38736e-09
6.52956e-14
8.37932e-15
1.38741e-09
-2.64299e-13
4.72218e-13
1.38741e-09
-3.58644e-15
-4.32998e-13
1.38752e-09
1.56888e-13
-1.02863e-12
1.388e-09
-1.29354e-13
-7.06804e-14
1.38702e-09
1.49688e-12
1.71342e-13
1.38704e-09
-4.56148e-13
5.82302e-13
1.38707e-09
-2.18109e-13
9.33544e-14
1.38687e-09
3.84546e-13
-2.95034e-13
1.38673e-09
9.54244e-16
8.11076e-15
1.38716e-09
-7.06813e-13
1.72073e-12
1.38757e-09
6.54572e-13
5.82722e-14
1.38778e-09
-1.57115e-13
-5.22972e-13
-2.096e-13
-1.3919e-12
6.1524e-09
3.0519e-09
-7.13478e-09
7.71653e-10
-1.61042e-09
1.85038e-09
-1.69224e-09
1.49214e-09
2.44905e-09
1.29901e-08
1.5979e-09
-6.02041e-10
-2.44094e-09
6.89355e-09
-5.09156e-09
-1.32183e-08
-2.63326e-10
1.01243e-09
4.91028e-10
8.42018e-10
4.22718e-10
3.63151e-09
-1.79777e-09
-7.64348e-10
-3.12045e-09
1.61013e-09
-5.78517e-10
2.21404e-09
-7.43103e-10
-2.7206e-09
4.14539e-10
3.61568e-09
-5.66517e-10
2.73057e-11
-4.37255e-10
5.99207e-11
-2.0123e-10
5.51258e-10
-1.27787e-10
8.48718e-11
-1.00075e-10
2.74981e-11
1.15492e-10
-3.71025e-11
2.09415e-11
1.89674e-10
-2.14009e-11
2.20697e-11
-3.7781e-11
-6.62052e-11
-7.01956e-11
1.4008e-09
-6.58414e-11
-2.36865e-11
-2.60628e-10
-2.64852e-10
-4.24912e-10
-4.31802e-10
1.39529e-09
-3.25518e-11
-3.02212e-12
1.39173e-09
-1.95092e-11
4.30529e-13
1.38991e-09
-1.10865e-11
-1.26e-13
1.38869e-09
-6.53915e-12
2.75276e-14
1.38801e-09
-3.94017e-12
7.1219e-15
1.38816e-09
-2.9565e-12
4.28264e-13
1.38812e-09
-1.54753e-12
-8.00263e-14
1.38772e-09
-5.2358e-13
-2.65242e-14
1.38792e-09
-4.91525e-13
1.65281e-13
1.38704e-09
-1.42432e-14
-9.70709e-14
1.38755e-09
-7.18028e-13
2.13786e-13
1.38751e-09
-3.21764e-13
1.73719e-13
1.38737e-09
8.33427e-14
-1.50262e-13
1.38734e-09
-4.88191e-13
7.19494e-13
1.38743e-09
-1.23272e-13
2.36903e-14
1.38723e-09
1.56115e-13
1.81846e-13
1.38698e-09
-4.60194e-13
4.02945e-13
1.38669e-09
6.40629e-14
-3.96363e-13
1.3862e-09
-1.6577e-14
2.43497e-13
1.38758e-09
4.57845e-13
2.64227e-12
1.38741e-09
6.50475e-13
-7.60116e-13
1.38814e-09
-2.63045e-12
1.63188e-12
1.38794e-09
1.10985e-13
-3.628e-14
1.3871e-09
1.26913e-12
-2.59949e-13
1.38718e-09
-7.43807e-14
3.56191e-14
1.38738e-09
-9.7397e-14
-6.77844e-14
1.38724e-09
1.08644e-12
-6.82525e-13
1.3871e-09
-3.197e-13
5.32969e-13
1.38749e-09
-1.50689e-13
-4.91079e-13
1.3877e-09
-1.77894e-13
-2.37251e-14
1.38707e-09
-3.62774e-13
1.1663e-12
1.38681e-09
1.90006e-13
-3.48426e-14
1.38778e-09
6.42982e-13
-1.0186e-13
1.38738e-09
-9.56968e-14
5.48167e-14
1.38716e-09
-6.22704e-14
6.86287e-14
1.38718e-09
1.563e-14
3.48062e-13
1.38668e-09
4.53688e-13
3.82895e-14
1.38717e-09
-1.03239e-12
-1.63222e-13
1.38706e-09
4.81271e-13
2.7123e-13
1.38824e-09
-2.82205e-12
1.48311e-12
-3.44717e-13
-5.43795e-13
-4.12211e-09
3.62721e-09
4.93639e-09
-3.67728e-09
-1.19275e-09
-6.41754e-09
-5.27313e-09
-2.59959e-09
1.4532e-09
-2.49295e-09
-2.95386e-10
-1.15861e-09
8.64708e-09
-1.02029e-08
2.15343e-08
-9.27205e-11
-3.78876e-09
-3.47013e-09
3.67431e-09
5.92492e-09
3.33023e-09
6.2617e-09
7.49075e-09
-3.54585e-08
-2.34853e-07
-3.90742e-07
6.38031e-07
3.13689e-09
1.48852e-09
-1.323e-09
-3.06074e-09
-2.41666e-10
1.41232e-11
-2.34179e-10
3.06903e-11
-2.48304e-10
4.3767e-10
-1.44363e-10
1.13227e-10
-2.8945e-11
-8.74927e-11
1.47574e-10
-4.22619e-11
1.53415e-11
2.08532e-10
-1.42176e-11
1.84914e-11
-4.02329e-11
-7.49816e-11
-7.06713e-11
1.44612e-09
-2.8184e-11
-2.78939e-11
-2.73378e-10
-2.76837e-10
-4.46438e-10
-4.59241e-10
1.42004e-09
-3.76362e-12
-2.72726e-12
1.40577e-09
-5.55659e-12
3.22929e-13
1.39783e-09
-3.00807e-12
-1.42809e-13
1.39329e-09
-1.9705e-12
-2.29069e-14
1.39099e-09
-1.62988e-12
-5.99103e-15
1.38921e-09
-8.38106e-13
-3.45295e-13
1.38857e-09
-1.96162e-12
1.05498e-12
1.38815e-09
-2.65638e-13
1.61679e-13
1.388e-09
-4.09903e-13
8.51328e-14
1.38812e-09
-1.93441e-13
7.00869e-14
1.38763e-09
-3.45208e-13
1.27375e-13
1.38728e-09
2.39373e-13
-2.10504e-13
1.3872e-09
-1.56628e-13
3.27628e-13
1.38734e-09
-2.74862e-14
-5.8719e-13
1.38712e-09
1.16293e-13
-1.64276e-14
1.38731e-09
7.63845e-14
-1.0511e-13
1.38753e-09
-3.46934e-13
-3.43855e-13
1.38721e-09
-3.59706e-13
7.24895e-13
1.38749e-09
-1.13788e-13
-2.00045e-13
1.38766e-09
2.78948e-13
2.43611e-15
1.38755e-09
1.76457e-13
5.86956e-13
1.38688e-09
-1.83054e-13
-1.76638e-12
1.3869e-09
1.99347e-13
-8.17175e-14
1.38782e-09
1.02855e-12
-6.64902e-13
1.38692e-09
-6.19255e-14
9.00129e-13
1.38703e-09
-3.85116e-14
-1.58603e-13
1.38719e-09
1.38281e-13
7.94087e-13
1.38734e-09
1.94039e-14
-4.83308e-13
1.38765e-09
-4.78396e-13
2.66249e-14
1.3873e-09
9.51226e-13
-7.5763e-13
1.38736e-09
-3.47502e-13
-5.60885e-14
1.38753e-09
-2.92538e-13
3.28121e-13
1.38755e-09
2.24341e-12
-1.60552e-12
1.38729e-09
1.73658e-12
-1.56129e-12
1.38687e-09
3.17307e-13
5.01441e-14
1.38769e-09
-1.51942e-12
7.09108e-13
1.38799e-09
-1.73523e-13
3.25963e-13
1.38674e-09
4.53372e-13
-2.37928e-13
1.38696e-09
3.7822e-13
-1.21321e-13
1.38707e-09
1.1174e-12
-4.05533e-12
-1.90786e-12
5.13588e-14
-3.84565e-09
8.77179e-09
-6.067e-09
-3.07554e-09
-1.76062e-09
-4.30653e-09
-1.67808e-09
9.46175e-10
1.26381e-10
6.49164e-09
-3.43364e-09
-6.62972e-09
3.44534e-09
-3.4367e-09
3.19443e-09
-7.60778e-09
4.90777e-10
7.35927e-09
-2.93036e-09
-1.1497e-09
3.2375e-09
-6.64723e-10
1.50728e-09
2.37337e-10
-3.45116e-10
1.87183e-10
-1.39808e-10
6.04047e-11
-1.49549e-10
-1.5656e-11
1.45079e-11
1.0569e-10
4.50069e-11
1.51622e-09
-3.38184e-11
-2.92583e-10
-2.79712e-10
-4.92142e-10
-4.6501e-10
-1.33088e-11
-1.82602e-11
-1.11208e-11
-2.42769e-11
1.45121e-09
-1.96345e-12
1.42519e-09
-4.80531e-13
1.40947e-09
-1.46775e-13
1.4e-09
7.59824e-14
1.39387e-09
-8.91194e-14
1.39228e-09
3.65492e-13
1.39065e-09
-1.46562e-13
1.38883e-09
-1.21494e-12
1.38796e-09
-1.0628e-13
1.38847e-09
1.27052e-13
1.38825e-09
-2.90846e-13
1.38765e-09
-1.64544e-12
1.3869e-09
1.49393e-13
1.38721e-09
-2.37418e-14
1.38717e-09
3.30139e-14
1.38735e-09
7.48538e-14
1.38721e-09
1.29379e-13
1.38732e-09
8.48091e-13
1.38741e-09
-4.48425e-13
1.38729e-09
-3.23339e-14
1.38773e-09
9.15157e-13
1.38776e-09
-5.46893e-13
1.38732e-09
-3.0331e-12
1.38644e-09
-1.26048e-12
1.38689e-09
9.96718e-13
1.38714e-09
-5.07878e-13
1.38713e-09
4.70018e-14
1.38734e-09
6.00076e-13
1.38744e-09
-2.17578e-13
1.3871e-09
-5.29257e-14
1.38775e-09
7.88416e-13
1.38743e-09
1.25846e-13
1.38735e-09
-2.37089e-13
1.38799e-09
1.45434e-12
1.38747e-09
2.61957e-12
1.38767e-09
-4.51296e-14
1.38701e-09
-6.95931e-13
1.38721e-09
-3.18587e-13
1.3878e-09
4.97728e-14
1.38837e-09
-2.21513e-13
1.38702e-09
2.69661e-12
1.64821e-14
1.64764e-09
-2.53474e-09
4.7691e-09
-4.27101e-09
-6.39745e-10
1.52504e-09
-1.07232e-10
1.36135e-09
-2.15677e-09
-1.33939e-09
1.51464e-08
-3.62907e-09
-8.89022e-09
-1.35434e-09
-6.40194e-10
1.21654e-08
9.22014e-10
-1.15646e-08
-2.18355e-09
-8.77388e-09
1.06824e-09
-4.42063e-10
1.58476e-08
8.08078e-10
-3.65479e-09
1.41197e-09
-4.15342e-09
1.98175e-09
-6.31076e-10
1.11666e-09
9.24788e-10
-2.75731e-09
-7.32376e-11
-1.47311e-11
4.97671e-12
-1.88579e-11
1.17687e-10
2.36929e-09
6.79469e-11
2.84545e-11
-5.87897e-10
-5.7899e-10
-5.87905e-10
-5.78971e-10
2.34742e-09
6.76229e-11
1.81922e-13
2.34159e-09
3.3881e-11
-2.49446e-13
2.33203e-09
2.11557e-11
-1.23466e-13
2.32701e-09
1.26154e-11
-6.12402e-13
2.3242e-09
7.69885e-12
-5.46859e-13
2.31943e-09
4.04881e-12
5.68351e-13
2.31736e-09
2.68399e-12
2.72452e-13
2.31696e-09
1.56193e-12
8.55047e-14
2.31673e-09
1.09289e-12
-3.17565e-14
2.31541e-09
1.656e-13
-1.37045e-13
2.31424e-09
9.60479e-13
-1.89607e-13
2.31464e-09
1.74236e-13
3.4726e-13
2.31544e-09
4.79233e-13
1.22314e-13
2.31506e-09
-3.02051e-13
-2.02025e-13
2.3147e-09
5.27071e-13
-1.1327e-13
2.31507e-09
-3.59785e-13
-8.4417e-14
2.31551e-09
-8.2377e-13
4.63666e-13
2.31519e-09
-1.05966e-12
1.19401e-12
2.31516e-09
2.08697e-13
7.01332e-14
2.31539e-09
-1.66082e-13
-5.86574e-14
2.31485e-09
-5.86439e-13
6.31423e-13
2.31495e-09
2.45235e-13
-4.01766e-13
2.3143e-09
4.22908e-12
-4.51334e-13
2.31471e-09
4.00658e-12
-3.05511e-12
2.31482e-09
-4.21849e-13
-2.51165e-13
2.31574e-09
1.29084e-13
-3.53703e-13
2.31562e-09
2.34736e-14
1.0304e-13
2.31493e-09
4.20044e-14
6.83554e-13
2.31429e-09
6.19568e-13
-1.60095e-13
2.31419e-09
-1.36918e-12
6.84695e-13
2.3167e-09
-6.83419e-13
-1.59865e-12
2.31599e-09
8.91641e-13
-1.08934e-13
2.31587e-09
1.90856e-13
2.97143e-14
2.31624e-09
-2.82343e-13
-2.28463e-14
2.31706e-09
-1.43546e-12
2.29609e-13
2.31464e-09
3.91004e-12
-3.16768e-12
2.31505e-09
-3.93397e-13
-1.57021e-13
2.31491e-09
-8.14056e-13
4.81798e-13
2.31649e-09
-1.64273e-12
-3.80746e-13
2.31607e-09
2.58537e-13
1.61532e-13
2.31496e-09
7.54165e-13
8.85062e-13
-5.76441e-13
-4.19478e-13
1.03022e-09
-5.30313e-09
-8.57918e-08
-3.32409e-11
4.27931e-09
3.69904e-09
3.3751e-08
-3.33754e-09
4.24201e-09
-3.70145e-10
6.1382e-10
1.86786e-09
-4.4747e-08
-1.60049e-09
2.23327e-08
-7.92378e-10
-4.1701e-09
4.10843e-09
-1.98782e-08
-1.61716e-10
-4.25459e-08
-3.26594e-09
4.84045e-08
-6.10086e-09
3.66985e-09
-1.26296e-08
-4.45339e-10
-4.08972e-10
2.59695e-09
1.43118e-08
-3.42479e-09
7.10454e-10
2.26247e-10
-7.77154e-11
1.33667e-10
1.32908e-11
-1.00594e-09
-8.64746e-11
-8.33326e-11
-2.01165e-11
2.48045e-11
3.94167e-11
1.25703e-10
2.32681e-09
-6.0395e-12
3.05423e-11
-5.65107e-10
-5.76114e-10
-5.65243e-10
-5.76066e-10
-1.27929e-11
-6.03608e-12
-1.27955e-11
2.31842e-09
7.28589e-11
1.49105e-12
2.32155e-09
3.04703e-11
1.58722e-13
2.32014e-09
2.25372e-11
1.99188e-14
2.31912e-09
1.36025e-11
1.64959e-14
2.31787e-09
8.19997e-12
4.05313e-13
2.31693e-09
4.96299e-12
2.55958e-14
2.31655e-09
3.0503e-12
1.86853e-14
2.31516e-09
2.69486e-12
5.25759e-14
2.31514e-09
1.0221e-12
2.95867e-14
2.31522e-09
9.83898e-13
-4.27379e-13
2.31494e-09
5.0324e-12
-1.86839e-12
2.31473e-09
3.80728e-13
2.04027e-14
2.31476e-09
6.09069e-13
6.55345e-14
2.3146e-09
8.68932e-14
4.31294e-15
2.31477e-09
8.03427e-13
3.48743e-13
2.31563e-09
-2.7301e-12
1.3986e-12
2.31524e-09
3.041e-13
-3.57058e-13
2.31501e-09
-4.94356e-14
-2.92246e-13
2.31512e-09
1.21163e-13
-2.34942e-15
2.31528e-09
-1.1672e-13
-1.03845e-13
2.31396e-09
5.04793e-12
-2.67146e-12
2.31369e-09
1.11953e-12
2.79911e-13
2.31466e-09
5.18705e-13
1.51089e-12
2.31493e-09
7.91272e-13
1.48602e-12
2.31615e-09
-2.29634e-12
2.52321e-12
2.31635e-09
1.33274e-12
8.8772e-13
2.31577e-09
4.24306e-13
2.09473e-13
2.31565e-09
9.8221e-13
-6.73092e-13
2.31626e-09
-3.38911e-14
-1.78152e-13
2.3163e-09
-3.08646e-13
-6.59022e-13
2.31416e-09
-6.24218e-13
1.63823e-12
2.31441e-09
4.28476e-13
4.3343e-15
2.31466e-09
-1.72173e-15
2.17177e-14
2.31421e-09
2.05522e-13
-2.06912e-14
2.31489e-09
6.80956e-13
-1.10825e-12
2.31697e-09
2.98723e-13
3.20096e-12
2.31637e-09
8.93278e-14
9.416e-14
2.31616e-09
1.86364e-13
-4.44227e-13
2.31552e-09
7.08845e-13
-6.30699e-13
2.31529e-09
5.98691e-13
-2.06302e-13
2.3157e-09
1.96869e-13
-7.4752e-13
-2.71523e-13
1.83694e-13
2.56253e-09
1.9082e-09
2.43167e-08
1.10825e-09
-8.25705e-10
1.72649e-09
-4.49783e-09
-1.61352e-09
9.29293e-09
-4.83394e-09
3.03726e-09
1.40289e-10
-1.93486e-09
1.06915e-09
-1.01221e-09
3.25602e-10
2.00509e-09
-8.44126e-11
1.33371e-09
-6.05389e-09
-2.20198e-09
4.68847e-10
1.93379e-09
4.15115e-09
-3.014e-09
5.07229e-09
1.82161e-08
-5.83657e-10
-1.27939e-08
-8.0106e-10
-1.86886e-09
-1.12317e-09
-2.14846e-09
8.33137e-11
-7.78791e-10
-2.59801e-10
7.21539e-09
-1.7456e-09
-8.86289e-09
-2.32572e-09
1.03065e-08
-1.32098e-10
-1.19391e-08
4.19326e-09
3.29044e-09
-2.36588e-10
-2.08622e-10
1.02182e-09
-5.98623e-10
-5.37012e-10
5.59026e-10
-1.2059e-10
5.5911e-11
-3.74408e-11
9.63254e-12
-1.14708e-11
1.03959e-10
-1.36623e-10
5.66072e-10
-2.11627e-11
1.81867e-12
-4.62751e-12
-1.32153e-10
-1.4204e-10
-1.37324e-10
2.27461e-09
1.23739e-11
2.24534e-11
-5.53004e-10
-5.76272e-10
-5.53007e-10
-5.76295e-10
2.29137e-09
1.02398e-11
1.75768e-12
2.30384e-09
1.11242e-11
-5.04158e-13
2.30935e-09
7.35066e-12
3.79493e-13
2.31254e-09
5.77478e-12
-3.74888e-13
2.3136e-09
3.99322e-12
-4.35112e-14
2.31403e-09
2.6896e-12
-2.31848e-14
2.31518e-09
1.71086e-12
-4.24093e-14
2.31503e-09
8.27602e-13
2.44719e-13
2.31443e-09
1.04471e-12
-4.96426e-14
2.31418e-09
1.37574e-12
1.96374e-12
2.31485e-09
-1.70685e-13
-2.45061e-14
2.31511e-09
-7.1338e-13
5.20313e-13
2.31562e-09
-3.9667e-13
-5.19877e-14
2.31482e-09
1.50806e-12
-1.54286e-12
2.31388e-09
-1.47748e-13
-1.62824e-12
2.31441e-09
-3.52052e-13
9.21139e-14
2.31455e-09
-2.56715e-13
-5.00871e-14
2.31436e-09
3.57526e-13
5.84087e-14
2.31375e-09
8.84122e-13
-1.96244e-13
2.31492e-09
-8.25496e-13
2.3382e-12
2.31631e-09
-3.95219e-12
1.14409e-12
2.31588e-09
1.03955e-12
-1.38627e-13
2.31727e-09
-2.36728e-12
7.94806e-13
2.31528e-09
3.16244e-13
-2.40946e-12
2.31469e-09
3.32773e-13
-7.58409e-13
2.31507e-09
3.35154e-13
-3.65876e-13
2.31566e-09
-8.31836e-14
2.65919e-13
2.31561e-09
1.64654e-13
2.15358e-13
2.31549e-09
9.92485e-14
-1.00158e-14
2.31506e-09
-4.4121e-13
-2.44668e-14
2.31457e-09
-2.78257e-13
6.23726e-13
2.31448e-09
-3.41171e-15
1.71694e-13
2.31421e-09
6.57783e-13
-1.7742e-14
2.31563e-09
1.69799e-12
-1.52744e-12
2.31703e-09
1.61037e-12
-1.1877e-12
2.3166e-09
1.13635e-12
-2.61649e-13
2.31653e-09
6.73482e-13
-1.92806e-13
2.31522e-09
8.63931e-14
9.96435e-13
2.31489e-09
8.26993e-13
5.8572e-14
2.31483e-09
4.19617e-13
-1.07128e-13
-2.23841e-12
1.35652e-12
4.27228e-09
-5.42617e-09
-5.26454e-10
-1.8989e-09
-1.08419e-09
-3.52918e-09
8.55751e-10
2.67435e-09
-1.52862e-10
6.47889e-10
5.27874e-09
9.09879e-11
2.13831e-08
-6.58088e-10
-5.51467e-09
5.61339e-09
-3.19537e-08
-1.99695e-09
2.74223e-10
6.28921e-09
3.36152e-09
6.90477e-09
2.54715e-08
-8.61697e-09
-1.75642e-09
-8.00506e-10
-1.84534e-10
2.91625e-09
2.99346e-09
-4.76614e-11
-9.80203e-09
3.30475e-09
3.3766e-09
2.8778e-10
6.52165e-10
1.53794e-09
-3.72944e-10
1.74514e-10
-2.27945e-09
2.83173e-11
8.16874e-11
1.22183e-10
-1.38682e-10
-1.08932e-10
1.54266e-11
-1.22887e-10
5.8744e-10
3.60413e-12
-4.04619e-11
-1.28764e-10
-1.2453e-10
-1.31189e-10
2.70121e-11
-1.60243e-11
-1.68691e-11
-1.91102e-11
-1.8221e-11
2.30195e-09
8.44629e-12
2.63832e-11
-5.71054e-10
-6.04464e-10
-5.71076e-10
-6.04559e-10
2.29845e-09
9.31685e-12
2.13488e-12
2.30344e-09
6.85675e-12
-3.33137e-13
2.30651e-09
4.97378e-12
-2.39257e-13
2.30946e-09
2.98595e-12
-1.09327e-13
2.31139e-09
2.10992e-12
-2.07559e-15
2.3124e-09
1.70334e-12
1.83765e-14
2.3129e-09
1.22202e-12
1.00572e-14
2.31356e-09
5.78951e-13
-1.52406e-13
2.31389e-09
6.10067e-13
4.14159e-13
2.31513e-09
4.40653e-13