/*--------------------------------*- C++ -*----------------------------------*\
| =========                 |                                                 |
| \\      /  F ield         | OpenFOAM: The Open Source CFD Toolbox           |
|  \\    /   O peration     | Version:  5.0                                   |
|   \\  /    A nd           | Web:      www.OpenFOAM.org                      |
|    \\/     M anipulation  |                                                 |
\*---------------------------------------------------------------------------*/
FoamFile
{
    version     2.0;
    format      ascii;
    class       volScalarField;
    location    "3.2";
    object      rAU;
}
// * * * * * * * * * * * * * * * * * * * * * * * * * * * * * * * * * * * * * //

dimensions      [-1 3 1 0 0 0 0];

internalField   nonuniform List<scalar> 
8024
(
8.75538e-07
6.21688e-07
2.20632e-07
2.95401e-07
3.38764e-07
6.30694e-07
3.51125e-08
3.92422e-07
3.93664e-07
3.94698e-07
3.95731e-07
3.96763e-07
3.97795e-07
3.98826e-07
3.99856e-07
4.00886e-07
4.01916e-07
4.02944e-07
4.03971e-07
4.04999e-07
4.06025e-07
4.0705e-07
4.08075e-07
4.09099e-07
4.10122e-07
4.11145e-07
4.12167e-07
4.13187e-07
4.14208e-07
4.15227e-07
4.16246e-07
4.17264e-07
4.18281e-07
4.19297e-07
4.20313e-07
4.21328e-07
4.22342e-07
4.23355e-07
4.24368e-07
4.25379e-07
4.2639e-07
4.274e-07
4.28409e-07
4.29418e-07
4.30425e-07
4.31431e-07
4.32437e-07
4.33442e-07
4.34446e-07
4.36222e-07
9.61274e-07
8.77376e-07
3.13622e-07
6.0203e-07
8.84882e-07
6.95985e-07
3.98333e-08
3.92288e-07
3.93664e-07
3.94697e-07
3.95731e-07
3.96763e-07
3.97795e-07
3.98826e-07
3.99856e-07
4.00886e-07
4.01915e-07
4.02944e-07
4.03971e-07
4.04999e-07
4.06025e-07
4.0705e-07
4.08075e-07
4.09099e-07
4.10122e-07
4.11145e-07
4.12167e-07
4.13187e-07
4.14208e-07
4.15227e-07
4.16246e-07
4.17264e-07
4.18281e-07
4.19297e-07
4.20313e-07
4.21328e-07
4.22342e-07
4.23355e-07
4.24368e-07
4.25379e-07
4.2639e-07
4.274e-07
4.28409e-07
4.29418e-07
4.30425e-07
4.31431e-07
4.32437e-07
4.33442e-07
4.34446e-07
4.36222e-07
9.62414e-07
9.41228e-07
8.8498e-07
8.77436e-07
8.93696e-07
6.92032e-07
3.28783e-07
1.29779e-07
3.93454e-07
3.94697e-07
3.9573e-07
3.96763e-07
3.97794e-07
3.98826e-07
3.99856e-07
4.00886e-07
4.01915e-07
4.02944e-07
4.03971e-07
4.04999e-07
4.06025e-07
4.0705e-07
4.08075e-07
4.09099e-07
4.10122e-07
4.11145e-07
4.12167e-07
4.13187e-07
4.14208e-07
4.15227e-07
4.16246e-07
4.17264e-07
4.18281e-07
4.19297e-07
4.20313e-07
4.21328e-07
4.22342e-07
4.23355e-07
4.24368e-07
4.25379e-07
4.2639e-07
4.274e-07
4.28409e-07
4.29418e-07
4.30425e-07
4.31431e-07
4.32437e-07
4.33442e-07
4.34446e-07
4.36222e-07
9.71653e-07
9.63323e-07
9.52857e-07
9.41318e-07
8.72981e-07
6.85141e-07
7.01377e-07
1.29671e-07
3.93452e-07
3.94695e-07
3.9573e-07
3.96762e-07
3.97794e-07
3.98826e-07
3.99856e-07
4.00886e-07
4.01915e-07
4.02944e-07
4.03971e-07
4.04998e-07
4.06025e-07
4.0705e-07
4.08075e-07
4.09099e-07
4.10122e-07
4.11145e-07
4.12167e-07
4.13187e-07
4.14208e-07
4.15227e-07
4.16246e-07
4.17264e-07
4.18281e-07
4.19297e-07
4.20313e-07
4.21328e-07
4.22342e-07
4.23355e-07
4.24368e-07
4.25379e-07
4.2639e-07
4.274e-07
4.28409e-07
4.29418e-07
4.30425e-07
4.31431e-07
4.32437e-07
4.33442e-07
4.34446e-07
4.36222e-07
9.66328e-07
9.28931e-07
9.31938e-07
8.96515e-07
8.80695e-07
6.73926e-07
9.02551e-07
3.51876e-08
3.9345e-07
3.94695e-07
3.95729e-07
3.96762e-07
3.97794e-07
3.98826e-07
3.99856e-07
4.00886e-07
4.01915e-07
4.02944e-07
4.03971e-07
4.04998e-07
4.06025e-07
4.0705e-07
4.08075e-07
4.09099e-07
4.10122e-07
4.11145e-07
4.12167e-07
4.13187e-07
4.14208e-07
4.15227e-07
4.16246e-07
4.17264e-07
4.18281e-07
4.19297e-07
4.20313e-07
4.21328e-07
4.22342e-07
4.23355e-07
4.24368e-07
4.25379e-07
4.2639e-07
4.274e-07
4.28409e-07
4.29418e-07
4.30425e-07
4.31431e-07
4.32437e-07
4.33442e-07
4.34446e-07
4.36222e-07
8.72358e-07
7.04594e-07
8.67474e-07
8.6806e-07
6.37293e-07
6.74527e-07
9.02839e-07
3.53986e-08
3.93449e-07
3.94694e-07
3.95729e-07
3.96762e-07
3.97794e-07
3.98826e-07
3.99856e-07
4.00886e-07
4.01915e-07
4.02944e-07
4.03971e-07
4.04998e-07
4.06024e-07
4.0705e-07
4.08075e-07
4.09099e-07
4.10122e-07
4.11145e-07
4.12166e-07
4.13187e-07
4.14208e-07
4.15227e-07
4.16246e-07
4.17264e-07
4.18281e-07
4.19297e-07
4.20313e-07
4.21328e-07
4.22342e-07
4.23355e-07
4.24368e-07
4.25379e-07
4.2639e-07
4.274e-07
4.28409e-07
4.29418e-07
4.30425e-07
4.31431e-07
4.32437e-07
4.33442e-07
4.34446e-07
4.36222e-07
8.71467e-07
4.9225e-07
8.78077e-07
9.48509e-07
8.86908e-07
6.68696e-07
7.00209e-07
3.52137e-08
3.93451e-07
3.94695e-07
3.95729e-07
3.96762e-07
3.97794e-07
3.98826e-07
3.99856e-07
4.00886e-07
4.01915e-07
4.02944e-07
4.03971e-07
4.04998e-07
4.06024e-07
4.0705e-07
4.08075e-07
4.09099e-07
4.10122e-07
4.11145e-07
4.12167e-07
4.13187e-07
4.14208e-07
4.15227e-07
4.16246e-07
4.17264e-07
4.18281e-07
4.19297e-07
4.20313e-07
4.21328e-07
4.22342e-07
4.23355e-07
4.24368e-07
4.25379e-07
4.2639e-07
4.274e-07
4.28409e-07
4.29418e-07
4.30425e-07
4.31431e-07
4.32437e-07
4.33442e-07
4.34446e-07
4.36222e-07
9.60615e-07
9.60961e-07
8.62994e-07
8.8415e-07
8.86107e-07
6.66429e-07
6.98905e-07
1.29689e-07
3.93453e-07
3.94696e-07
3.9573e-07
3.96762e-07
3.97794e-07
3.98826e-07
3.99856e-07
4.00886e-07
4.01915e-07
4.02944e-07
4.03971e-07
4.04999e-07
4.06025e-07
4.0705e-07
4.08075e-07
4.09099e-07
4.10122e-07
4.11145e-07
4.12167e-07
4.13187e-07
4.14208e-07
4.15227e-07
4.16246e-07
4.17264e-07
4.18281e-07
4.19297e-07
4.20313e-07
4.21328e-07
4.22342e-07
4.23355e-07
4.24368e-07
4.25379e-07
4.2639e-07
4.274e-07
4.28409e-07
4.29418e-07
4.30425e-07
4.31431e-07
4.32437e-07
4.33442e-07
4.34446e-07
4.36222e-07
9.59009e-07
9.47869e-07
8.56672e-07
6.94944e-07
8.69767e-07
6.11065e-07
2.02034e-07
1.29503e-07
3.93454e-07
3.94697e-07
3.9573e-07
3.96763e-07
3.97794e-07
3.98826e-07
3.99856e-07
4.00886e-07
4.01915e-07
4.02944e-07
4.03971e-07
4.04999e-07
4.06025e-07
4.0705e-07
4.08075e-07
4.09099e-07
4.10122e-07
4.11145e-07
4.12166e-07
4.13187e-07
4.14208e-07
4.15227e-07
4.16246e-07
4.17264e-07
4.18281e-07
4.19297e-07
4.20313e-07
4.21328e-07
4.22342e-07
4.23355e-07
4.24368e-07
4.25379e-07
4.2639e-07
4.274e-07
4.28409e-07
4.29418e-07
4.30425e-07
4.31431e-07
4.32437e-07
4.33442e-07
4.34446e-07
4.36222e-07
9.62822e-07
8.86326e-07
8.74052e-07
8.2381e-07
8.75936e-07
6.92239e-07
3.9976e-08
3.92288e-07
3.93664e-07
3.94697e-07
3.95731e-07
3.96763e-07
3.97795e-07
3.98826e-07
3.99856e-07
4.00886e-07
4.01916e-07
4.02944e-07
4.03971e-07
4.04998e-07
4.06025e-07
4.0705e-07
4.08075e-07
4.09099e-07
4.10122e-07
4.11145e-07
4.12166e-07
4.13187e-07
4.14208e-07
4.15227e-07
4.16246e-07
4.17264e-07
4.18281e-07
4.19297e-07
4.20313e-07
4.21328e-07
4.22342e-07
4.23355e-07
4.24368e-07
4.25379e-07
4.2639e-07
4.274e-07
4.28409e-07
4.29418e-07
4.30425e-07
4.31431e-07
4.32437e-07
4.33442e-07
4.34446e-07
4.36222e-07
8.86375e-07
6.59824e-07
3.43571e-07
4.15659e-07
8.93556e-07
7.59068e-07
5.21364e-08
5.04901e-07
5.06389e-07
5.07529e-07
5.08666e-07
5.09803e-07
5.10939e-07
5.12072e-07
5.13204e-07
5.14335e-07
5.15463e-07
5.16591e-07
5.17717e-07
5.1884e-07
5.19963e-07
5.21084e-07
5.22203e-07
5.23321e-07
5.24437e-07
5.25551e-07
5.26664e-07
5.27775e-07
5.28884e-07
5.29992e-07
5.31099e-07
5.32203e-07
5.33306e-07
5.34407e-07
5.35506e-07
5.36604e-07
5.37701e-07
5.38795e-07
5.39888e-07
5.4098e-07
5.42069e-07
5.43157e-07
5.44243e-07
5.45327e-07
5.46411e-07
5.47492e-07
5.48571e-07
5.49649e-07
5.50726e-07
5.5304e-07
8.37452e-07
6.83644e-07
5.8815e-07
4.08321e-07
9.28596e-07
7.26736e-07
5.90414e-08
5.04677e-07
5.06388e-07
5.07528e-07
5.08665e-07
5.09803e-07
5.10938e-07
5.12071e-07
5.13204e-07
5.14335e-07
5.15463e-07
5.16591e-07
5.17717e-07
5.1884e-07
5.19963e-07
5.21084e-07
5.22203e-07
5.23321e-07
5.24437e-07
5.25551e-07
5.26664e-07
5.27775e-07
5.28884e-07
5.29992e-07
5.31099e-07
5.32203e-07
5.33306e-07
5.34407e-07
5.35506e-07
5.36604e-07
5.37701e-07
5.38795e-07
5.39888e-07
5.4098e-07
5.42069e-07
5.43157e-07
5.44243e-07
5.45327e-07
5.4641e-07
5.47492e-07
5.48571e-07
5.49649e-07
5.50726e-07
5.5304e-07
9.20198e-07
8.83478e-07
7.24085e-07
8.98892e-07
8.15267e-07
7.16899e-07
4.13152e-07
1.84067e-07
5.06039e-07
5.07526e-07
5.08665e-07
5.09802e-07
5.10938e-07
5.12071e-07
5.13204e-07
5.14335e-07
5.15463e-07
5.16591e-07
5.17717e-07
5.1884e-07
5.19963e-07
5.21084e-07
5.22203e-07
5.23321e-07
5.24437e-07
5.25551e-07
5.26664e-07
5.27775e-07
5.28884e-07
5.29992e-07
5.31099e-07
5.32203e-07
5.33306e-07
5.34407e-07
5.35506e-07
5.36604e-07
5.37701e-07
5.38795e-07
5.39888e-07
5.4098e-07
5.42069e-07
5.43157e-07
5.44243e-07
5.45327e-07
5.4641e-07
5.47492e-07
5.48571e-07
5.49649e-07
5.50726e-07
5.5304e-07
9.5715e-07
8.83626e-07
7.28186e-07
9.07928e-07
9.07943e-07
6.89248e-07
7.77132e-07
1.83852e-07
5.06033e-07
5.07524e-07
5.08663e-07
5.09801e-07
5.10937e-07
5.12071e-07
5.13203e-07
5.14335e-07
5.15463e-07
5.16591e-07
5.17717e-07
5.1884e-07
5.19963e-07
5.21084e-07
5.22203e-07
5.23321e-07
5.24437e-07
5.25551e-07
5.26664e-07
5.27775e-07
5.28884e-07
5.29992e-07
5.31099e-07
5.32203e-07
5.33306e-07
5.34407e-07
5.35506e-07
5.36604e-07
5.37701e-07
5.38795e-07
5.39888e-07
5.4098e-07
5.42069e-07
5.43157e-07
5.44243e-07
5.45327e-07
5.4641e-07
5.47492e-07
5.48571e-07
5.49649e-07
5.50726e-07
5.5304e-07
9.7196e-07
8.90742e-07
7.47516e-07
7.01366e-07
6.01713e-07
6.77543e-07
9.31348e-07
5.20244e-08
5.06029e-07
5.07522e-07
5.08662e-07
5.09801e-07
5.10937e-07
5.12071e-07
5.13203e-07
5.14335e-07
5.15463e-07
5.16591e-07
5.17717e-07
5.1884e-07
5.19963e-07
5.21084e-07
5.22203e-07
5.23321e-07
5.24437e-07
5.25551e-07
5.26664e-07
5.27775e-07
5.28884e-07
5.29992e-07
5.31099e-07
5.32203e-07
5.33306e-07
5.34407e-07
5.35506e-07
5.36604e-07
5.37701e-07
5.38795e-07
5.39888e-07
5.4098e-07
5.42069e-07
5.43157e-07
5.44243e-07
5.45327e-07
5.4641e-07
5.47492e-07
5.48571e-07
5.49649e-07
5.50726e-07
5.5304e-07
8.96544e-07
8.92552e-07
8.95914e-07
8.56157e-07
7.15139e-07
7.3551e-07
9.3152e-07
5.28405e-08
5.06027e-07
5.07522e-07
5.08662e-07
5.09801e-07
5.10937e-07
5.12071e-07
5.13203e-07
5.14335e-07
5.15463e-07
5.16591e-07
5.17717e-07
5.1884e-07
5.19963e-07
5.21084e-07
5.22203e-07
5.23321e-07
5.24437e-07
5.25551e-07
5.26664e-07
5.27775e-07
5.28884e-07
5.29992e-07
5.31099e-07
5.32203e-07
5.33306e-07
5.34407e-07
5.35506e-07
5.36605e-07
5.37701e-07
5.38795e-07
5.39888e-07
5.4098e-07
5.42069e-07
5.43157e-07
5.44243e-07
5.45327e-07
5.46411e-07
5.47492e-07
5.48571e-07
5.49649e-07
5.50725e-07
5.5304e-07
8.94795e-07
5.47811e-07
8.02278e-07
9.34019e-07
9.24661e-07
6.79143e-07
7.72984e-07
5.19975e-08
5.06032e-07
5.07523e-07
5.08663e-07
5.09801e-07
5.10937e-07
5.12071e-07
5.13203e-07
5.14335e-07
5.15463e-07
5.16591e-07
5.17717e-07
5.1884e-07
5.19963e-07
5.21084e-07
5.22203e-07
5.23321e-07
5.24437e-07
5.25551e-07
5.26664e-07
5.27775e-07
5.28884e-07
5.29992e-07
5.31099e-07
5.32203e-07
5.33306e-07
5.34407e-07
5.35506e-07
5.36604e-07
5.37701e-07
5.38795e-07
5.39888e-07
5.4098e-07
5.42069e-07
5.43157e-07
5.44243e-07
5.45327e-07
5.46411e-07
5.47492e-07
5.48571e-07
5.49649e-07
5.50725e-07
5.5304e-07
9.66553e-07
8.96073e-07
8.85545e-07
9.28659e-07
9.22291e-07
7.4254e-07
7.77397e-07
1.83948e-07
5.06037e-07
5.07525e-07
5.08664e-07
5.09802e-07
5.10938e-07
5.12071e-07
5.13204e-07
5.14335e-07
5.15463e-07
5.16591e-07
5.17717e-07
5.1884e-07
5.19963e-07
5.21084e-07
5.22203e-07
5.23321e-07
5.24437e-07
5.25551e-07
5.26664e-07
5.27775e-07
5.28884e-07
5.29992e-07
5.31099e-07
5.32203e-07
5.33306e-07
5.34407e-07
5.35506e-07
5.36604e-07
5.37701e-07
5.38795e-07
5.39888e-07
5.4098e-07
5.42069e-07
5.43157e-07
5.44243e-07
5.45327e-07
5.4641e-07
5.47492e-07
5.48571e-07
5.49649e-07
5.50725e-07
5.5304e-07
9.72262e-07
9.29714e-07
4.37174e-07
3.42569e-07
8.86976e-07
6.67987e-07
2.74879e-07
1.83949e-07
5.0604e-07
5.07527e-07
5.08665e-07
5.09802e-07
5.10938e-07
5.12071e-07
5.13204e-07
5.14335e-07
5.15463e-07
5.16591e-07
5.17717e-07
5.1884e-07
5.19963e-07
5.21084e-07
5.22203e-07
5.23321e-07
5.24437e-07
5.25551e-07
5.26664e-07
5.27775e-07
5.28884e-07
5.29992e-07
5.31099e-07
5.32203e-07
5.33306e-07
5.34407e-07
5.35506e-07
5.36604e-07
5.37701e-07
5.38795e-07
5.39888e-07
5.4098e-07
5.42069e-07
5.43157e-07
5.44243e-07
5.45327e-07
5.4641e-07
5.47492e-07
5.48571e-07
5.49649e-07
5.50725e-07
5.5304e-07
9.66812e-07
8.61117e-07
8.29869e-07
7.17728e-07
9.0351e-07
7.27781e-07
5.93223e-08
5.04679e-07
5.06389e-07
5.07529e-07
5.08666e-07
5.09803e-07
5.10939e-07
5.12072e-07
5.13204e-07
5.14335e-07
5.15463e-07
5.16591e-07
5.17717e-07
5.1884e-07
5.19963e-07
5.21084e-07
5.22203e-07
5.23321e-07
5.24437e-07
5.25551e-07
5.26664e-07
5.27775e-07
5.28884e-07
5.29992e-07
5.31099e-07
5.32203e-07
5.33306e-07
5.34407e-07
5.35506e-07
5.36604e-07
5.37701e-07
5.38795e-07
5.39888e-07
5.4098e-07
5.42069e-07
5.43157e-07
5.44243e-07
5.45327e-07
5.4641e-07
5.47492e-07
5.48571e-07
5.49649e-07
5.50725e-07
5.5304e-07
9.0982e-07
7.64825e-07
7.41339e-07
7.81856e-07
8.72812e-07
7.30992e-07
5.20155e-08
3.92422e-07
3.93664e-07
3.94698e-07
3.95731e-07
3.96763e-07
3.97795e-07
3.98826e-07
3.99856e-07
4.00886e-07
4.01915e-07
4.02944e-07
4.03971e-07
4.04998e-07
4.06025e-07
4.0705e-07
4.08075e-07
4.09099e-07
4.10122e-07
4.11145e-07
4.12166e-07
4.13187e-07
4.14208e-07
4.15227e-07
4.16246e-07
4.17264e-07
4.18281e-07
4.19297e-07
4.20313e-07
4.21328e-07
4.22342e-07
4.23355e-07
4.24368e-07
4.25379e-07
4.2639e-07
4.274e-07
4.28409e-07
4.29417e-07
4.30425e-07
4.31431e-07
4.32437e-07
4.33442e-07
4.34446e-07
4.36222e-07
8.58663e-07
1.64437e-07
7.42004e-07
8.89668e-07
9.14527e-07
7.50818e-07
5.89502e-08
3.92287e-07
3.93664e-07
3.94697e-07
3.95731e-07
3.96763e-07
3.97795e-07
3.98826e-07
3.99856e-07
4.00886e-07
4.01915e-07
4.02944e-07
4.03971e-07
4.04998e-07
4.06025e-07
4.0705e-07
4.08075e-07
4.09099e-07
4.10122e-07
4.11145e-07
4.12166e-07
4.13187e-07
4.14208e-07
4.15227e-07
4.16246e-07
4.17264e-07
4.18281e-07
4.19297e-07
4.20313e-07
4.21328e-07
4.22342e-07
4.23355e-07
4.24368e-07
4.25379e-07
4.2639e-07
4.274e-07
4.28409e-07
4.29417e-07
4.30425e-07
4.31431e-07
4.32437e-07
4.33442e-07
4.34446e-07
4.36222e-07
9.22183e-07
5.46621e-07
8.67233e-07
7.98008e-07
7.15487e-07
7.53165e-07
4.13842e-07
1.84072e-07
3.93454e-07
3.94697e-07
3.9573e-07
3.96763e-07
3.97794e-07
3.98826e-07
3.99856e-07
4.00886e-07
4.01915e-07
4.02944e-07
4.03971e-07
4.04998e-07
4.06024e-07
4.0705e-07
4.08075e-07
4.09099e-07
4.10122e-07
4.11145e-07
4.12166e-07
4.13187e-07
4.14208e-07
4.15227e-07
4.16246e-07
4.17264e-07
4.18281e-07
4.19297e-07
4.20313e-07
4.21328e-07
4.22342e-07
4.23355e-07
4.24368e-07
4.25379e-07
4.2639e-07
4.274e-07
4.28409e-07
4.29417e-07
4.30425e-07
4.31431e-07
4.32437e-07
4.33442e-07
4.34446e-07
4.36222e-07
9.66543e-07
8.98815e-07
7.4607e-07
6.31322e-07
2.79919e-07
7.16422e-07
7.77827e-07
1.83855e-07
3.93452e-07
3.94695e-07
3.95729e-07
3.96762e-07
3.97794e-07
3.98826e-07
3.99856e-07
4.00886e-07
4.01915e-07
4.02944e-07
4.03971e-07
4.04998e-07
4.06024e-07
4.0705e-07
4.08075e-07
4.09099e-07
4.10122e-07
4.11145e-07
4.12166e-07
4.13187e-07
4.14208e-07
4.15227e-07
4.16246e-07
4.17264e-07
4.18281e-07
4.19297e-07
4.20313e-07
4.21328e-07
4.22342e-07
4.23355e-07
4.24368e-07
4.25379e-07
4.2639e-07
4.274e-07
4.28409e-07
4.29418e-07
4.30425e-07
4.31431e-07
4.32437e-07
4.33442e-07
4.34446e-07
4.36222e-07
9.61624e-07
8.82564e-07
4.24636e-07
4.4645e-07
4.68965e-07
6.82196e-07
9.31381e-07
5.20233e-08
3.9345e-07
3.94695e-07
3.95729e-07
3.96762e-07
3.97794e-07
3.98826e-07
3.99856e-07
4.00886e-07
4.01915e-07
4.02944e-07
4.03971e-07
4.04998e-07
4.06024e-07
4.0705e-07
4.08075e-07
4.09099e-07
4.10122e-07
4.11145e-07
4.12166e-07
4.13187e-07
4.14208e-07
4.15227e-07
4.16246e-07
4.17264e-07
4.18281e-07
4.19297e-07
4.20313e-07
4.21328e-07
4.22342e-07
4.23355e-07
4.24368e-07
4.25379e-07
4.2639e-07
4.274e-07
4.28409e-07
4.29418e-07
4.30425e-07
4.31431e-07
4.32437e-07
4.33442e-07
4.34446e-07
4.36222e-07
9.62736e-07
8.55934e-07
8.79734e-07
8.70264e-07
5.79485e-07
7.1702e-07
9.31165e-07
5.27924e-08
3.93449e-07
3.94694e-07
3.95729e-07
3.96762e-07
3.97794e-07
3.98826e-07
3.99856e-07
4.00886e-07
4.01915e-07
4.02944e-07
4.03971e-07
4.04998e-07
4.06024e-07
4.0705e-07
4.08075e-07
4.09099e-07
4.10122e-07
4.11145e-07
4.12166e-07
4.13187e-07
4.14208e-07
4.15227e-07
4.16246e-07
4.17264e-07
4.18281e-07
4.19297e-07
4.20313e-07
4.21328e-07
4.22342e-07
4.23355e-07
4.24368e-07
4.25379e-07
4.2639e-07
4.274e-07
4.28409e-07
4.29418e-07
4.30425e-07
4.31431e-07
4.32437e-07
4.33442e-07
4.34446e-07
4.36222e-07
9.39654e-07
8.95273e-07
9.65637e-07
8.79137e-07
5.41627e-07
6.8517e-07
7.73517e-07
5.19978e-08
3.93451e-07
3.94695e-07
3.95729e-07
3.96762e-07
3.97794e-07
3.98826e-07
3.99856e-07
4.00886e-07
4.01915e-07
4.02944e-07
4.03971e-07
4.04998e-07
4.06024e-07
4.0705e-07
4.08075e-07
4.09099e-07
4.10122e-07
4.11145e-07
4.12166e-07
4.13187e-07
4.14208e-07
4.15227e-07
4.16246e-07
4.17264e-07
4.18281e-07
4.19297e-07
4.20313e-07
4.21328e-07
4.22342e-07
4.23355e-07
4.24368e-07
4.25379e-07
4.2639e-07
4.274e-07
4.28409e-07
4.29418e-07
4.30425e-07
4.31431e-07
4.32437e-07
4.33442e-07
4.34446e-07
4.36222e-07
9.6762e-07
9.21663e-07
9.219e-07
9.03619e-07
8.86131e-07
7.51274e-07
7.76669e-07
1.83952e-07
3.93453e-07
3.94696e-07
3.9573e-07
3.96762e-07
3.97794e-07
3.98826e-07
3.99856e-07
4.00886e-07
4.01915e-07
4.02944e-07
4.03971e-07
4.04998e-07
4.06024e-07
4.0705e-07
4.08075e-07
4.09099e-07
4.10122e-07
4.11145e-07
4.12166e-07
4.13187e-07
4.14208e-07
4.15227e-07
4.16246e-07
4.17264e-07
4.18281e-07
4.19297e-07
4.20313e-07
4.21328e-07
4.22342e-07
4.23355e-07
4.24368e-07
4.25379e-07
4.2639e-07
4.274e-07
4.28409e-07
4.29418e-07
4.30425e-07
4.31431e-07
4.32437e-07
4.33442e-07
4.34446e-07
4.36222e-07
9.56956e-07
8.7829e-07
6.1471e-07
4.88846e-07
6.18381e-07
7.19498e-07
2.74378e-07
1.83954e-07
3.93454e-07
3.94697e-07
3.9573e-07
3.96763e-07
3.97794e-07
3.98826e-07
3.99856e-07
4.00886e-07
4.01915e-07
4.02944e-07
4.03971e-07
4.04998e-07
4.06025e-07
4.0705e-07
4.08075e-07
4.09099e-07
4.10122e-07
4.11145e-07
4.12166e-07
4.13187e-07
4.14208e-07
4.15227e-07
4.16246e-07
4.17264e-07
4.18281e-07
4.19297e-07
4.20313e-07
4.21328e-07
4.22342e-07
4.23355e-07
4.24368e-07
4.25379e-07
4.2639e-07
4.274e-07
4.28409e-07
4.29418e-07
4.30425e-07
4.31431e-07
4.32437e-07
4.33442e-07
4.34446e-07
4.36222e-07
9.61974e-07
9.26411e-07
9.60581e-07
7.88532e-07
5.67918e-07
7.24715e-07
5.93276e-08
3.92288e-07
3.93664e-07
3.94697e-07
3.95731e-07
3.96763e-07
3.97795e-07
3.98826e-07
3.99856e-07
4.00886e-07
4.01915e-07
4.02944e-07
4.03971e-07
4.04998e-07
4.06025e-07
4.0705e-07
4.08075e-07
4.09099e-07
4.10122e-07
4.11145e-07
4.12166e-07
4.13187e-07
4.14208e-07
4.15227e-07
4.16246e-07
4.17264e-07
4.18281e-07
4.19297e-07
4.20313e-07
4.21328e-07
4.22342e-07
4.23355e-07
4.24368e-07
4.25379e-07
4.2639e-07
4.274e-07
4.28409e-07
4.29418e-07
4.30425e-07
4.31431e-07
4.32437e-07
4.33442e-07
4.34446e-07
4.36222e-07
8.03139e-08
4.40508e-07
9.68099e-08
7.41111e-07
1.15512e-07
4.79878e-07
1.38327e-07
1.85661e-07
6.83848e-07
6.96884e-07
7.43054e-07
2.53275e-07
7.40045e-07
7.71254e-07
7.0029e-07
6.87645e-07
7.01211e-07
7.09065e-07
7.75503e-07
7.41668e-07
7.78234e-07
6.99855e-07
6.77178e-07
7.00715e-07
7.12576e-07
7.76717e-07
6.89584e-07
7.72146e-07
6.97304e-07
6.69532e-07
6.99437e-07
6.80328e-07
7.71134e-07
7.60033e-07
7.75903e-07
6.99713e-07
6.79802e-07
6.99331e-07
7.48866e-07
7.75978e-07
6.67302e-07
7.7445e-07
6.98987e-07
6.84894e-07
7.00279e-07
6.71304e-07
7.72737e-07
6.76864e-07
7.76321e-07
7.00318e-07
6.58544e-07
7.00809e-07
7.08518e-07
7.77435e-07
5.93393e-07
7.75734e-07
6.98208e-07
5.36869e-07
2.92553e-07
6.90503e-07
7.72203e-07
6.76201e-07
3.73552e-07
1.78726e-07
6.27251e-07
7.26714e-08
7.36919e-07
2.45387e-07
6.49435e-07
1.05325e-07
1.15313e-07
4.7607e-07
1.38302e-07
7.38591e-07
1.14497e-07
6.42572e-07
1.38662e-07
2.53515e-07
7.01542e-07
7.71298e-07
7.25457e-07
2.53713e-07
6.52472e-07
7.71489e-07
7.75614e-07
7.35341e-07
7.7823e-07
7.39258e-07
7.7537e-07
6.79225e-07
7.78239e-07
7.76584e-07
7.00814e-07
7.725e-07
6.97784e-07
7.76245e-07
7.31775e-07
7.75101e-07
7.72438e-07
7.67295e-07
7.75489e-07
6.72726e-07
7.70326e-07
7.45262e-07
7.75694e-07
7.75739e-07
6.71481e-07
7.73418e-07
7.41235e-07
7.74107e-07
6.66581e-07
7.74674e-07
7.71012e-07
6.80287e-07
7.76466e-07
7.21372e-07
7.72213e-07
6.6387e-07
7.77125e-07
7.77371e-07
5.96367e-07
7.75239e-07
7.50738e-07
7.76758e-07
6.27757e-07
7.75528e-07
7.72166e-07
6.75694e-07
3.71378e-07
6.8361e-07
7.72414e-07
6.98546e-07
3.70567e-07
2.45044e-07
6.61171e-07
1.0537e-07
6.77307e-07
2.43872e-07
6.73848e-07
1.05344e-07
1.14295e-07
6.45254e-07
1.38769e-07
6.86964e-07
7.94919e-08
6.93682e-07
9.70854e-08
2.53759e-07
6.75318e-07
7.71414e-07
6.83911e-07
1.83938e-07
6.78895e-07
6.96876e-07
7.75377e-07
7.03543e-07
7.78224e-07
6.71365e-07
7.00217e-07
6.88042e-07
7.0123e-07
7.74778e-07
6.39563e-07
7.75668e-07
5.86012e-07
6.99256e-07
4.43025e-07
7.00253e-07
7.7081e-07
7.43193e-07
7.7292e-07
6.78518e-07
6.98164e-07
6.88881e-07
6.99268e-07
7.74041e-07
6.41094e-07
7.74299e-07
6.68023e-07
7.00156e-07
5.81243e-07
6.99275e-07
7.69802e-07
6.83364e-07
7.7558e-07
6.15911e-07
6.99221e-07
6.85154e-07
6.99105e-07
7.77062e-07
6.54664e-07
7.76124e-07
6.88217e-07
7.00808e-07
6.59634e-07
7.00544e-07
7.72655e-07
7.02292e-07
3.71313e-07
6.80434e-07
6.98357e-07
6.7856e-07
2.88601e-07
2.43742e-07
6.74106e-07
1.05323e-07
6.93764e-07
1.77829e-07
6.58112e-07
7.26625e-08
8.67107e-07
8.74507e-07
7.14452e-07
8.05065e-07
9.24863e-07
9.08808e-07
8.31503e-07
6.56771e-07
6.03322e-07
5.84848e-07
7.15422e-07
6.23769e-07
5.63509e-07
6.83013e-07
1.29567e-07
3.5958e-08
1.29567e-07
5.19363e-08
1.83834e-07
5.36109e-08
1.83834e-07
8.8856e-07
8.70098e-07
8.66652e-07
8.35257e-07
9.11057e-07
9.10004e-07
8.86261e-07
7.31508e-07
6.99079e-07
6.76843e-07
7.60821e-07
7.72992e-07
7.30686e-07
6.83441e-07
1.29567e-07
1.17144e-07
1.29517e-07
5.90059e-08
1.83834e-07
1.65803e-07
1.83735e-07
8.89727e-07
8.54511e-07
8.30408e-07
8.72037e-07
9.05272e-07
8.80563e-07
8.72969e-07
7.71102e-07
6.984e-07
3.90592e-07
7.62397e-07
7.72828e-07
4.92309e-07
6.95377e-07
3.52934e-08
6.98729e-07
3.52887e-08
4.1419e-07
5.20168e-08
7.77557e-07
5.20075e-08
8.69511e-07
8.73102e-07
8.84739e-07
8.61068e-07
8.63552e-07
8.30998e-07
8.48114e-07
6.83394e-07
6.42912e-07
6.6608e-07
7.41332e-07
7.45442e-07
6.88592e-07
5.4271e-07
3.57999e-08
6.9951e-07
4.85684e-08
7.77185e-07
5.30298e-08
7.72002e-07
7.22177e-08
8.74372e-07
5.65274e-07
2.35848e-07
7.35602e-07
6.48819e-07
4.02224e-07
2.7845e-07
7.52023e-07
6.95376e-07
6.48438e-07
7.1373e-07
7.63568e-07
6.75552e-07
6.8923e-07
5.94403e-08
9.0274e-07
7.96713e-08
9.31754e-07
8.68211e-08
9.3211e-07
1.15054e-07
6.50257e-07
8.95544e-07
6.84845e-07
5.53154e-07
5.74408e-07
9.14022e-07
8.16886e-07
7.71468e-07
6.97893e-07
3.38439e-07
7.33495e-07
7.71937e-07
4.63563e-07
6.96728e-07
8.21132e-08
9.02498e-07
5.81789e-08
9.31869e-07
1.18329e-07
9.30731e-07
8.50042e-08
6.04851e-07
8.67855e-07
8.71118e-07
8.82747e-07
6.85265e-07
9.0046e-07
8.99337e-07
7.34357e-07
6.95024e-07
3.27952e-07
7.19552e-07
7.64743e-07
4.13287e-07
6.49306e-07
4.78363e-08
7.00902e-07
3.57883e-08
7.70717e-07
7.07137e-08
7.77686e-07
5.30213e-08
8.80998e-07
7.95162e-07
8.99476e-07
8.3764e-07
8.94121e-07
8.85899e-07
8.79251e-07
7.56015e-07
6.97571e-07
6.96634e-07
7.05963e-07
7.7172e-07
7.14813e-07
6.90628e-07
3.5278e-08
6.88618e-07
3.50555e-08
7.77368e-07
5.20092e-08
7.43454e-07
5.19794e-08
8.24107e-07
8.51765e-07
8.42262e-07
8.98592e-07
8.94415e-07
8.96792e-07
9.17003e-07
5.62797e-07
6.92751e-07
4.23553e-07
6.92709e-07
7.60072e-07
4.72681e-07
4.36334e-07
3.52087e-08
4.61199e-08
1.29418e-07
2.74561e-07
5.19791e-08
6.82687e-08
1.83533e-07
8.85909e-07
6.68076e-07
8.49147e-07
9.03688e-07
8.71233e-07
7.40306e-07
8.80227e-07
7.66084e-07
6.75245e-07
6.62529e-07
7.41996e-07
7.56094e-07
6.84664e-07
6.96339e-07
1.29567e-07
3.49349e-08
1.29567e-07
5.92373e-08
1.83833e-07
5.16593e-08
1.83833e-07
9.20256e-07
8.63379e-07
8.41891e-07
8.66781e-07
9.0223e-07
8.69168e-07
9.08185e-07
7.03187e-07
6.94327e-07
6.09118e-07
7.53414e-07
6.77294e-07
6.75765e-07
7.17967e-07
1.8383e-07
5.36842e-08
1.8383e-07
5.23242e-08
1.8383e-07
5.36633e-08
1.8383e-07
8.6621e-07
9.04451e-07
9.08817e-07
8.93284e-07
9.22507e-07
8.11111e-07
8.94815e-07
6.75338e-07
7.65855e-07
6.87701e-07
7.25107e-07
6.72851e-07
7.6187e-07
6.92625e-07
1.83829e-07
1.6575e-07
1.83731e-07
5.90121e-08
1.8383e-07
1.656e-07
1.83731e-07
7.06574e-07
8.06558e-07
6.99174e-07
6.59155e-07
7.53273e-07
3.33728e-07
2.81008e-07
7.72485e-07
7.70883e-07
7.04601e-07
6.85735e-07
7.73657e-07
7.65999e-07
6.98537e-07
5.20163e-08
7.77099e-07
5.20075e-08
4.12481e-07
5.20163e-08
7.77298e-07
5.20075e-08
9.06279e-07
9.14497e-07
9.11729e-07
2.65491e-07
5.87532e-07
7.43903e-07
8.35136e-07
5.33828e-07
7.23288e-07
4.31851e-07
6.42684e-07
5.81302e-07
7.28349e-07
4.74174e-07
5.30791e-08
7.73316e-07
7.22438e-08
7.77726e-07
5.30816e-08
7.72934e-07
7.23056e-08
3.85804e-07
5.96581e-07
3.22181e-07
5.08143e-07
3.3569e-07
4.66029e-07
7.06467e-07
7.34916e-07
7.47119e-07
6.93105e-07
6.76113e-07
7.34623e-07
7.45976e-07
6.43056e-07
8.6889e-08
9.31558e-07
1.15123e-07
9.31643e-07
8.68786e-08
9.31248e-07
1.15101e-07
5.40201e-07
7.52848e-07
6.77349e-07
5.61914e-07
5.62259e-07
2.18345e-07
2.06479e-07
7.56686e-07
7.6479e-07
6.78498e-07
7.38489e-07
7.55598e-07
7.59502e-07
6.77444e-07
1.18397e-07
9.30957e-07
8.5063e-08
9.30952e-07
1.18356e-07
9.30187e-07
8.50541e-08
4.56904e-07
9.15124e-07
8.03942e-07
6.87233e-07
2.32116e-07
9.10475e-07
8.81752e-07
7.30207e-07
7.43405e-07
4.27942e-07
6.3718e-07
7.30225e-07
7.39046e-07
4.3982e-07
7.09139e-08
7.77503e-07
5.30754e-08
7.7535e-07
7.08992e-08
7.76799e-07
5.30753e-08
8.64218e-07
7.94846e-07
9.08997e-07
8.86247e-07
8.24912e-07
9.27632e-07
8.08694e-07
7.49401e-07
7.67854e-07
5.81437e-07
7.48084e-07
7.52431e-07
7.64107e-07
5.35306e-07
5.2009e-08
7.37583e-07
5.19788e-08
7.76518e-07
5.20091e-08
7.38347e-07
5.19788e-08
8.22128e-07
7.06525e-07
7.75712e-07
5.83939e-07
5.56555e-07
6.78173e-07
5.41162e-07
5.6063e-07
7.29936e-07
4.15587e-07
6.28391e-07
5.65303e-07
7.20458e-07
4.1729e-07
5.19786e-08
6.84331e-08
1.83528e-07
2.74652e-07
5.19787e-08
6.84722e-08
1.83528e-07
8.50597e-07
8.05658e-07
8.41774e-07
7.71826e-07
8.88684e-07
5.03017e-07
7.26079e-07
7.56414e-07
7.6472e-07
7.68468e-07
6.71879e-07
7.55882e-07
7.64448e-07
6.85094e-07
1.83828e-07
5.19889e-08
1.83828e-07
5.93867e-08
1.83828e-07
5.17204e-08
1.83829e-07
9.03044e-07
9.20515e-07
8.75923e-07
7.52356e-07
8.70247e-07
8.79688e-07
8.84952e-07
7.72132e-07
7.67323e-07
7.52954e-07
7.62238e-07
7.69771e-07
7.21109e-07
7.68706e-07
1.83834e-07
5.35969e-08
1.83834e-07
3.50884e-08
1.29567e-07
3.5918e-08
1.29567e-07
9.06266e-07
8.7187e-07
9.00494e-07
9.02802e-07
8.55308e-07
7.91139e-07
8.85929e-07
7.00997e-07
7.6685e-07
6.90888e-07
7.16094e-07
6.8451e-07
7.69142e-07
6.96985e-07
1.83834e-07
1.65574e-07
1.83735e-07
3.99431e-08
1.29567e-07
1.17051e-07
1.29517e-07
6.33926e-07
2.84513e-07
2.58068e-07
6.186e-07
6.61024e-07
2.59995e-07
1.96726e-07
7.69903e-07
7.68457e-07
7.29234e-07
7.39841e-07
7.72818e-07
7.65152e-07
7.22479e-07
5.20168e-08
7.77361e-07
5.20076e-08
3.28483e-07
3.51956e-08
6.98773e-07
3.52888e-08
5.88494e-07
6.46357e-07
8.22293e-07
2.39557e-07
6.2635e-07
3.62398e-07
7.44401e-07
4.75683e-07
7.11194e-07
4.0937e-07
6.9569e-07
5.81442e-07
7.10019e-07
3.73623e-07
5.30329e-08
7.74686e-07
7.20032e-08
7.01404e-07
3.5799e-08
7.00437e-07
4.85561e-08
5.10447e-07
4.25658e-07
6.15219e-07
2.18571e-07
6.25984e-07
6.46687e-07
5.6851e-07
7.13825e-07
7.53279e-07
6.05342e-07
7.29697e-07
7.10752e-07
7.58475e-07
5.21567e-07
8.68075e-08
9.31349e-07
1.15025e-07
9.02618e-07
5.94158e-08
9.02571e-07
7.96639e-08
5.80116e-07
1.28238e-07
3.33004e-07
8.7957e-07
7.89143e-07
6.34691e-07
2.10763e-07
7.71059e-07
7.64992e-07
6.96957e-07
7.15919e-07
7.69089e-07
7.68139e-07
6.99209e-07
1.18293e-07
9.31663e-07
8.49876e-08
9.02506e-07
8.21039e-08
9.02242e-07
5.81544e-08
2.65449e-07
8.09189e-07
8.13296e-07
6.6638e-07
2.24233e-07
8.91007e-07
8.53128e-07
7.33563e-07
7.39564e-07
5.18008e-07
6.62881e-07
7.2954e-07
7.42027e-07
5.404e-07
7.07527e-08
7.77104e-07
5.30227e-08
7.00292e-07
4.77497e-08
7.00939e-07
3.57858e-08
7.35633e-07
8.98171e-07
8.72936e-07
8.89048e-07
5.95913e-07
8.74855e-07
8.4199e-07
7.72314e-07
7.66988e-07
5.68049e-07
7.22887e-07
7.65652e-07
7.69081e-07
5.62994e-07
5.20092e-08
7.4438e-07
5.19793e-08
6.98842e-07
3.52663e-08
6.87631e-07
3.50555e-08
6.10416e-07
5.11357e-07
4.83296e-07
6.01211e-07
5.62167e-07
6.61403e-07
6.7331e-07
6.16153e-07
7.33981e-07
3.93116e-07
7.28619e-07
5.67631e-07
7.45332e-07
3.65301e-07
5.19791e-08
6.83692e-08
1.83532e-07
2.01639e-07
3.51414e-08
4.62092e-08
1.29419e-07
6.4183e-07
2.94793e-07
5.96034e-07
5.36216e-07
6.35176e-07
3.12316e-07
6.29023e-07
7.65091e-07
7.52311e-07
6.17781e-07
7.57721e-07
7.65881e-07
7.56213e-07
6.66503e-07
1.83833e-07
5.16719e-08
1.83833e-07
4.00599e-08
1.29567e-07
3.4952e-08
1.29567e-07
7.67368e-07
6.93364e-07
7.11591e-08
1.15629e-07
1.03104e-07
6.93093e-07
7.68499e-07
4.66609e-07
1.52201e-07
5.6595e-07
4.95674e-07
2.32545e-07
6.53983e-07
3.93698e-07
7.2837e-07
7.94756e-08
6.94377e-07
1.38428e-07
1.14302e-07
7.67694e-07
6.46287e-07
6.68385e-07
7.25802e-07
6.94844e-07
6.03701e-07
6.10288e-07
6.70502e-07
6.91815e-07
7.65347e-07
1.15633e-07
7.63795e-07
1.03233e-07
1.03199e-07
7.65499e-07
7.66535e-07
4.58487e-07
4.76531e-07
3.39201e-07
6.56494e-07
2.76923e-07
6.5522e-07
4.56837e-07
7.26513e-07
1.38388e-07
1.1478e-07
7.66843e-07
1.14255e-07
7.67197e-07
7.18679e-07
7.73386e-07
6.97976e-07
3.37025e-07
2.53998e-07
7.72735e-07
4.26348e-07
6.98979e-07
7.40294e-07
6.88493e-07
6.93644e-07
7.3347e-07
7.44444e-07
7.65772e-07
6.69808e-07
7.77067e-07
6.9303e-07
6.99842e-07
7.72022e-07
7.67557e-07
7.75125e-07
7.00732e-07
7.10882e-07
7.69482e-07
7.66655e-07
6.68314e-07
7.68609e-07
6.99817e-07
6.94673e-07
7.70944e-07
2.53312e-07
7.71718e-07
4.16676e-07
7.72045e-07
4.20277e-07
7.67871e-07
7.34707e-07
6.89915e-07
7.26383e-07
7.58963e-07
7.26945e-07
7.61418e-07
7.3832e-07
7.75194e-07
7.71665e-07
7.67099e-07
7.73691e-07
7.67327e-07
7.74222e-07
7.76286e-07
7.70689e-07
7.00923e-07
7.01087e-07
7.76513e-07
7.74025e-07
7.77227e-07
6.984e-07
7.50976e-07
6.73048e-07
6.98565e-07