/*--------------------------------*- C++ -*----------------------------------*\
| =========                 |                                                 |
| \\      /  F ield         | OpenFOAM: The Open Source CFD Toolbox           |
|  \\    /   O peration     | Version:  5.0                                   |
|   \\  /    A nd           | Web:      www.OpenFOAM.org                      |
|    \\/     M anipulation  |                                                 |
\*---------------------------------------------------------------------------*/
FoamFile
{
    version     2.0;
    format      ascii;
    class       volVectorField;
    location    "3.2";
    object      U;
}
// * * * * * * * * * * * * * * * * * * * * * * * * * * * * * * * * * * * * * //

dimensions      [0 1 -1 0 0 0 0];

internalField   nonuniform List<vector> 
8024
(
(-0.00353215 0.00767735 -0.00012572)
(-0.0216736 -0.00510232 -0.000192218)
(-0.0210618 -0.00258874 -0.00755025)
(-0.0252456 -0.0109167 0.000889147)
(-0.0150059 -8.05592e-05 0.000379055)
(0.00149941 0.00298722 0.000108182)
(0.000362947 5.23357e-05 1.95647e-05)
(0.000867224 5.94322e-05 -1.74149e-06)
(0.000828476 3.37991e-05 -1.177e-07)
(0.000829447 1.84844e-05 1.05498e-07)
(0.000823814 1.04788e-05 1.04953e-07)
(0.000819348 5.84843e-06 7.51252e-08)
(0.000816402 3.4336e-06 1.61247e-09)
(0.000813256 2.37098e-06 7.82012e-08)
(0.000810235 1.43654e-06 2.08935e-08)
(0.000808251 9.08105e-07 7.39005e-09)
(0.000806622 5.36014e-07 5.1951e-08)
(0.000804769 4.57599e-07 6.66057e-08)
(0.000802611 2.00851e-07 5.8911e-08)
(0.000800922 -2.61674e-08 2.28137e-07)
(0.000799693 -1.27396e-07 5.05658e-08)
(0.000798236 -1.39124e-08 6.52846e-08)
(0.00079652 -8.16619e-08 4.49324e-08)
(0.000794969 -9.91711e-08 4.48706e-08)
(0.000793623 4.84544e-09 2.67733e-10)
(0.000792108 7.19303e-08 -6.95281e-09)
(0.000790447 6.07514e-08 4.39064e-08)
(0.000789039 2.18775e-08 4.86849e-08)
(0.000787485 1.5621e-07 1.61767e-08)
(0.000785929 -1.5652e-07 6.02222e-08)
(0.000784395 -5.03624e-07 8.84173e-08)
(0.000782832 -5.62238e-07 2.03898e-08)
(0.00078143 -4.34999e-07 7.80925e-08)
(0.000780113 -1.98826e-07 3.95447e-08)
(0.000778801 -1.38671e-08 6.99899e-08)
(0.000777195 1.0034e-07 7.22907e-08)
(0.000775529 1.08013e-07 3.20275e-08)
(0.000773875 2.18556e-07 9.76293e-10)
(0.000772976 5.21157e-07 8.86025e-08)
(0.000771911 1.56718e-07 4.19842e-08)
(0.000770191 1.11925e-08 2.54442e-08)
(0.000768787 -4.28885e-09 6.16885e-08)
(0.000767724 -4.10259e-07 -4.88567e-08)
(0.000765885 -4.66572e-07 1.67793e-09)
(0.00076407 -3.07644e-07 4.01178e-08)
(0.000762769 -1.13628e-07 -7.58062e-08)
(0.00076163 5.90026e-08 4.79903e-08)
(0.00076058 -1.04014e-07 4.2103e-08)
(0.000758831 -3.77431e-07 4.28221e-08)
(0.000757231 -3.23933e-07 5.34612e-09)
(-0.00724458 -0.00134211 -0.00388545)
(-0.0176863 0.00817806 -0.00151595)
(0.00385703 -0.00774868 -0.012891)
(-0.0679226 3.7885e-05 0.00588884)
(-0.00191667 0.00566587 0.00088949)
(0.000231464 0.00500479 -3.0475e-05)
(0.000383369 -7.05738e-05 3.80444e-05)
(0.000823582 2.43005e-05 -2.51138e-06)
(0.00081596 4.24072e-05 -9.14846e-08)
(0.000817082 1.88681e-05 9.98373e-09)
(0.000816698 1.27114e-05 4.64903e-08)
(0.000814882 7.61944e-06 4.74271e-08)
(0.000813161 4.67834e-06 4.1397e-08)
(0.000811254 2.60848e-06 4.74489e-08)
(0.000809561 1.65342e-06 4.86183e-08)
(0.000807645 1.01603e-06 8.53034e-08)
(0.000805797 7.48273e-07 4.85072e-08)
(0.000804324 3.69909e-07 6.25715e-08)
(0.000802751 2.10446e-07 9.75224e-08)
(0.000801106 1.84727e-07 2.35331e-08)
(0.000799539 2.31746e-07 9.79778e-08)
(0.000797965 1.02653e-07 5.22289e-08)
(0.00079639 2.10236e-07 2.2049e-07)
(0.000795112 2.20321e-07 2.24774e-07)
(0.00079368 2.48728e-08 5.54283e-08)
(0.000792014 -1.31632e-07 5.48379e-08)
(0.000790501 -1.91832e-07 3.30816e-08)
(0.000789106 -2.15211e-07 4.8765e-08)
(0.000787382 -5.28832e-07 6.8717e-08)
(0.0007855 -4.47007e-07 6.76602e-08)
(0.000784176 -2.84195e-07 -8.15704e-08)
(0.000782864 -1.28324e-07 2.51413e-08)
(0.000781632 2.90325e-07 1.1778e-07)
(0.000780499 3.05828e-07 1.04675e-07)
(0.000778925 1.24652e-07 4.28099e-08)
(0.00077732 7.01355e-08 4.03534e-08)
(0.000775998 1.84759e-07 3.68255e-08)
(0.000774762 3.57281e-07 4.33942e-09)
(0.000772824 6.11208e-07 7.33104e-08)
(0.000771019 2.89891e-07 4.10366e-07)
(0.000769832 1.16843e-07 5.98834e-08)
(0.000768291 -2.59651e-08 6.45367e-08)
(0.000766817 -3.18748e-07 9.01172e-08)
(0.000766034 -6.32521e-07 1.19328e-07)
(0.000764862 -1.10587e-07 5.47696e-08)
(0.000763242 2.6994e-09 5.99392e-08)
(0.0007617 3.60111e-07 5.32842e-08)
(0.000760125 7.39669e-08 4.79584e-08)
(0.000758753 -8.73225e-08 -7.12779e-08)
(0.000757734 -1.69411e-07 1.07781e-07)
(0.00454139 -0.0038948 -0.000256818)
(0.00163298 0.00649806 -0.000292206)
(0.00334475 -0.00155561 0.000659101)
(0.00904871 -0.0138205 0.000639915)
(0.0125735 0.00873282 -0.000131031)
(-0.00208657 0.00609593 -5.69881e-05)
(0.00135838 0.000439769 1.19882e-05)
(0.000411427 -1.23291e-05 -9.1549e-07)
(0.000841199 2.49359e-05 -1.74714e-06)
(0.000792366 1.1442e-05 -4.15024e-07)
(0.000809709 9.27638e-06 1.90131e-07)
(0.00080928 6.02499e-06 4.17777e-08)
(0.000810124 3.88672e-06 9.5155e-08)
(0.000809468 2.45615e-06 5.38903e-08)
(0.000808241 1.53695e-06 5.30675e-08)
(0.000807118 8.15016e-07 5.68742e-08)
(0.000805814 4.68902e-07 2.5066e-08)
(0.000804096 2.25851e-07 8.24975e-08)
(0.000802379 -1.92701e-08 8.96506e-08)
(0.000800948 3.43915e-08 4.67078e-08)
(0.00079959 7.06134e-09 2.3906e-08)
(0.000798208 3.67385e-08 4.70222e-08)
(0.000796665 6.7915e-09 6.29345e-08)
(0.000794735 1.6516e-07 6.52342e-08)
(0.000793182 7.13204e-08 4.82581e-08)
(0.000791837 4.00226e-08 2.72718e-08)
(0.000790344 -2.85645e-08 5.55825e-08)
(0.000788621 -4.42549e-08 5.35723e-08)
(0.0007872 -1.35057e-07 -3.34141e-09)
(0.000786241 2.66671e-07 5.21297e-09)
(0.000784797 4.44269e-07 2.33203e-07)
(0.000783551 5.37166e-07 5.0501e-08)
(0.000781972 5.19773e-07 3.48657e-10)
(0.000779903 3.47835e-07 1.41169e-08)
(0.000778504 1.46626e-07 8.95248e-08)
(0.000777269 1.44824e-07 4.61852e-08)
(0.000775886 1.02049e-07 6.37352e-08)
(0.000774405 -9.90348e-09 4.79976e-08)
(0.000772887 -1.57705e-07 2.6828e-08)
(0.00077129 5.77126e-08 1.01691e-07)
(0.000769795 1.02373e-07 6.94585e-08)
(0.000768243 1.96945e-07 6.24178e-08)
(0.000766969 5.27153e-07 1.47003e-07)
(0.000766149 5.81694e-07 1.15736e-07)
(0.000764868 3.16521e-07 -5.79826e-08)
(0.000763358 2.5561e-07 5.13033e-08)
(0.000761719 2.78414e-07 9.41552e-08)
(0.000760021 4.06992e-07 8.07304e-08)
(0.000758532 2.42807e-07 5.71421e-08)
(0.000757549 1.3694e-07 9.71249e-08)
(0.00717122 -0.00857835 2.17117e-05)
(-0.000548588 -0.00394029 0.0003319)
(0.00810519 0.0145945 -0.00040111)
(-0.00421297 0.000762652 -0.000293506)
(0.00612143 -0.00398155 -0.000722315)
(0.000917525 -0.00303934 0.000111657)
(-0.000374397 -0.000497366 -2.25921e-05)
(0.000453551 -4.33642e-05 1.30677e-06)
(0.000854114 -1.95305e-06 -1.53049e-06)
(0.000797274 3.39694e-06 -1.5702e-07)
(0.000809913 3.67697e-06 1.56801e-07)
(0.000808133 3.11269e-06 -1.88229e-07)
(0.000808693 2.05431e-06 5.46217e-08)
(0.000808313 1.47712e-06 4.85146e-08)
(0.000807507 1.1604e-06 4.57974e-08)
(0.000806309 8.37066e-07 4.72566e-08)
(0.000805061 2.8698e-07 5.03608e-08)
(0.000803715 7.73053e-08 8.09835e-08)
(0.000802514 -3.13738e-08 3.63072e-08)
(0.000801141 -1.01656e-07 2.26081e-08)
(0.000799543 -9.12693e-08 5.85062e-08)
(0.000797965 -1.17651e-07 5.06837e-08)
(0.00079655 -2.07957e-07 1.03495e-08)
(0.000795192 -1.62994e-07 6.30449e-08)
(0.000793522 4.29648e-08 2.4898e-08)
(0.000791889 1.55945e-07 2.88008e-08)
(0.000790395 2.83421e-07 5.97184e-08)
(0.000788973 4.25174e-07 5.1604e-08)
(0.000787769 7.42181e-07 -8.61872e-09)
(0.000786221 5.39245e-07 4.48138e-08)
(0.000784509 3.1619e-07 1.24286e-08)
(0.000782953 2.66621e-07 7.56951e-08)
(0.000781391 -9.6243e-08 2.91016e-08)
(0.00078003 -3.67221e-08 4.65127e-08)
(0.00077867 9.06603e-08 6.02693e-08)
(0.000777264 9.02213e-08 4.52882e-08)
(0.000775804 2.49935e-08 3.36684e-08)
(0.000774438 6.33021e-08 4.93855e-08)
(0.000772909 -2.04983e-07 1.5371e-08)
(0.000771345 -2.71869e-07 4.7746e-08)
(0.000770005 -5.54906e-08 4.96069e-08)
(0.00076882 4.84109e-08 5.65981e-08)
(0.000767295 2.87491e-07 2.01943e-07)
(0.000765766 3.24619e-07 2.16185e-08)
(0.00076445 5.52873e-08 3.362e-08)
(0.000763191 4.48431e-08 4.19719e-08)
(0.000761886 3.35798e-08 7.2477e-08)
(0.000760078 2.83617e-07 3.88161e-08)
(0.000758411 1.53156e-07 4.65448e-08)
(0.000757259 2.50427e-07 1.61995e-07)
(0.00740811 -0.000294893 -0.000571147)
(0.000662364 -0.0072445 0.000187798)
(-0.00191742 0.00230797 0.000576797)
(-0.00798248 -0.0109394 5.99762e-05)
(0.00494077 -0.0190041 0.000246144)
(0.00661161 -0.00285123 0.000335238)
(0.00269771 2.05204e-05 4.56303e-05)
(0.000377792 -2.09905e-05 7.2198e-06)
(0.000860272 1.29209e-05 -1.80899e-06)
(0.000799227 5.42712e-06 -4.86915e-07)
(0.000809371 2.41556e-06 1.15409e-07)
(0.000807257 9.95132e-07 3.64817e-07)
(0.000808079 6.94344e-07 1.05062e-07)
(0.000808349 1.83636e-07 4.55559e-08)
(0.000807439 -2.06261e-07 3.05578e-08)
(0.000806024 -2.35528e-07 4.55618e-09)
(0.000804863 -4.13942e-08 4.88015e-08)
(0.000803699 -7.64095e-08 4.71004e-08)
(0.000802157 9.07202e-08 7.75931e-08)
(0.000800875 1.24162e-07 7.0983e-08)
(0.000799572 -9.72777e-09 6.41936e-08)
(0.000798064 1.10698e-07 1.70462e-08)
(0.00079661 1.78725e-07 6.43147e-08)
(0.00079505 7.69807e-08 9.29276e-08)
(0.00079358 2.80577e-08 7.79074e-08)
(0.000792136 -3.23687e-08 6.56967e-08)
(0.000790677 1.87378e-07 6.66615e-08)
(0.000789189 3.02661e-07 6.28903e-08)
(0.000787336 4.34921e-07 2.26068e-07)
(0.000785701 4.88439e-07 1.02363e-08)
(0.000784451 2.147e-07 5.76096e-08)
(0.000783031 -3.55491e-09 3.26926e-08)
(0.00078159 1.42454e-07 7.00157e-08)
(0.000780135 1.17677e-07 4.81656e-08)
(0.000778662 1.53854e-07 4.47226e-08)
(0.000777186 1.07433e-08 4.83676e-08)
(0.000775852 -5.34522e-08 2.43477e-08)
(0.000774119 -2.46252e-07 4.64276e-08)
(0.00077247 -1.86882e-07 4.41701e-08)
(0.000771479 -2.18487e-07 8.19589e-08)
(0.000770196 4.27875e-08 5.51179e-08)
(0.00076867 8.34384e-08 4.70428e-07)
(0.000767311 -2.07357e-08 5.54995e-08)
(0.000765856 7.12289e-08 -8.58255e-08)
(0.000764516 -9.18044e-08 5.5234e-08)
(0.00076333 -2.01334e-07 4.81173e-08)
(0.000762017 -5.1875e-07 1.30788e-08)
(0.000760169 -8.24111e-07 1.62986e-08)
(0.000758485 -3.27668e-07 5.67142e-08)
(0.000757047 3.59411e-08 5.14351e-08)
(-0.0158277 0.000231873 0.00233833)
(-0.000168602 -0.0020972 0.000132693)
(0.0218716 0.00930067 4.70786e-05)
(-0.00390088 -0.000743613 0.000103269)
(0.00389298 0.00083866 -5.4731e-05)
(-0.00156266 0.00970596 -0.000361534)
(0.00222017 0.000478489 6.83339e-06)
(0.000439458 2.12598e-05 2.90371e-05)
(0.000833292 8.89551e-06 -1.86178e-06)
(0.000784489 -4.56017e-07 -4.519e-07)
(0.000804362 -2.06245e-06 9.40153e-08)
(0.000805974 -2.24635e-06 -1.51115e-10)
(0.000807675 -1.51881e-06 5.69581e-08)
(0.000807185 -1.26836e-06 4.02938e-08)
(0.000806983 -1.09787e-06 8.28822e-08)
(0.000806516 -8.33317e-07 7.94063e-08)
(0.00080526 -4.41202e-07 4.9962e-08)
(0.00080388 -1.71576e-07 6.62599e-08)
(0.000802764 -1.79754e-07 2.00207e-08)
(0.000801014 1.51359e-07 -1.68814e-08)
(0.000799525 2.23953e-07 1.33684e-07)
(0.000798199 1.9459e-07 6.96031e-08)
(0.000796507 1.59166e-07 5.47264e-08)
(0.000795003 1.40188e-07 6.11613e-08)
(0.000793386 1.82152e-07 6.6982e-08)
(0.000792088 1.91078e-07 1.94909e-08)
(0.000790813 -1.83975e-09 4.07319e-08)
(0.00078928 -1.30969e-07 1.14829e-08)
(0.000787998 -4.40685e-08 2.57686e-08)
(0.000785942 -2.9267e-07 -1.3287e-07)
(0.000783892 -1.71573e-07 2.68165e-09)
(0.00078286 -2.43296e-08 -9.27982e-09)
(0.000781541 -7.72661e-08 1.41551e-08)
(0.000780042 -6.36595e-08 -6.34681e-08)
(0.000778535 -1.07955e-07 -5.26538e-08)
(0.000777005 -3.33841e-08 4.16848e-08)
(0.000775484 -3.06512e-08 1.30639e-09)
(0.000774272 -8.13687e-08 4.78333e-08)
(0.000772945 1.63076e-07 5.90296e-08)
(0.000771632 2.74837e-07 6.29267e-08)
(0.000770382 1.98719e-07 8.32751e-08)
(0.00076874 3.69958e-07 2.44108e-07)
(0.000767279 2.40251e-07 2.58377e-08)
(0.000765678 1.14113e-07 -5.40444e-09)
(0.000764111 5.42058e-08 2.37115e-08)
(0.000762661 -1.5174e-07 4.43972e-08)
(0.000761112 -5.01928e-07 -7.43379e-08)
(0.000760322 -6.93334e-07 6.42224e-08)
(0.000759487 -4.65383e-07 8.89928e-08)
(0.000757624 -3.30123e-07 1.2888e-07)
(-0.0114831 -0.00421434 0.000683161)
(0.00543722 -0.00748133 -0.000241468)
(-0.00163229 -0.00574696 -0.000634098)
(0.00427365 0.00680811 -0.000749975)
(0.0387872 -0.00520973 -0.000849143)
(-0.0162848 0.00183843 -0.000104108)
(-0.000913223 -0.000553502 7.54641e-05)
(0.000300422 3.42897e-05 8.29473e-06)
(0.00083079 -3.24726e-05 -1.48188e-06)
(0.000785182 -2.10294e-05 -4.06466e-07)
(0.000807098 -1.22027e-05 1.55091e-07)
(0.000807922 -7.37422e-06 2.75155e-08)
(0.000809297 -4.71664e-06 4.91626e-08)
(0.000808873 -2.80534e-06 4.68572e-08)
(0.000807983 -1.6071e-06 4.88306e-08)
(0.000806846 -8.76225e-07 5.30875e-08)
(0.000805691 -5.04361e-07 4.9414e-08)
(0.000804026 -1.82059e-07 2.9731e-08)
(0.00080256 4.12147e-08 5.1832e-08)
(0.000801379 -1.60573e-07 5.84124e-08)
(0.000799624 1.14232e-07 -3.75037e-08)
(0.000797981 1.94255e-08 4.78081e-08)
(0.000796541 7.43012e-08 4.11798e-08)
(0.000795077 5.67909e-08 4.85872e-08)
(0.000793643 1.22597e-07 3.29432e-09)
(0.000791905 1.923e-07 8.54765e-08)
(0.000790275 -5.91451e-08 5.66725e-08)
(0.000789138 -2.58529e-07 4.16681e-08)
(0.000787136 -7.2303e-07 -4.61958e-08)
(0.000785544 -9.192e-07 1.09309e-07)
(0.000784789 -5.33099e-07 -7.53991e-08)
(0.000783152 -1.81922e-07 6.98853e-08)
(0.000781543 -2.31262e-08 3.83366e-08)
(0.000780099 -5.7708e-08 6.28524e-08)
(0.000778701 -8.30445e-08 7.06582e-08)
(0.000777284 4.72695e-08 6.46972e-08)
(0.000775792 7.76843e-08 4.84306e-08)
(0.000774361 1.77035e-07 5.78799e-08)
(0.000772915 1.00886e-07 7.31953e-08)
(0.000771521 2.98168e-07 2.58221e-08)
(0.000770313 -7.94513e-09 6.11906e-08)
(0.00076872 -2.17475e-07 -1.99097e-08)
(0.000766991 -1.08211e-07 4.61575e-08)
(0.000765623 -1.65205e-07 3.54992e-08)
(0.000764185 -7.69117e-08 -4.76042e-10)
(0.000762638 -6.74653e-09 4.81833e-08)
(0.000761344 -6.60722e-09 4.62625e-08)
(0.00076022 1.25092e-07 5.21486e-08)
(0.000758948 -2.24071e-07 3.07502e-08)
(0.00075804 -3.18886e-07 4.81385e-08)
(-0.000686936 0.00130573 -0.000463982)
(0.00954367 -0.000139396 8.72951e-05)
(-0.000730693 0.0112367 -6.73756e-05)
(0.0057609 -0.00155425 0.000312018)
(-0.00475175 0.00217451 0.000296919)
(0.00369513 0.000422123 0.00017344)
(0.00121668 -0.00100064 2.81595e-05)
(0.000478601 -7.47064e-05 9.88252e-07)
(0.000898774 -5.36111e-05 -1.2417e-06)
(0.000810347 -2.92525e-05 -4.41092e-07)
(0.000821454 -1.63917e-05 1.83305e-07)
(0.000815343 -9.30853e-06 4.10713e-08)
(0.000813393 -5.43475e-06 5.97709e-08)
(0.000811077 -3.23749e-06 5.14998e-08)
(0.000809397 -1.91071e-06 8.00357e-08)
(0.000807896 -1.19272e-06 5.00057e-08)
(0.000806128 -7.99469e-07 1.13257e-07)
(0.000804561 -6.02868e-07 8.89515e-08)
(0.00080279 -2.74784e-07 8.35811e-08)
(0.000801105 -1.6072e-07 3.67783e-08)
(0.00079975 -1.90075e-07 5.25724e-08)
(0.000798149 -1.08409e-07 6.41896e-08)
(0.000796554 -1.77827e-07 3.98082e-08)
(0.000795063 -1.10578e-07 4.76695e-08)
(0.000793554 -2.62669e-07 5.51335e-08)
(0.00079186 -3.0008e-07 -1.24644e-07)
(0.000790249 -9.65941e-08 1.92901e-08)
(0.000788453 -9.75278e-08 7.75336e-08)
(0.000787178 -2.40622e-07 1.17417e-07)
(0.000786186 3.39473e-07 -1.18897e-07)
(0.000784819 3.18214e-07 8.08948e-08)
(0.0007835 6.83499e-08 3.43307e-08)
(0.000781697 9.25996e-09 4.00409e-08)
(0.000779968 1.48831e-07 4.7011e-08)
(0.000778667 7.51042e-08 5.11744e-08)
(0.000777206 -6.90653e-08 1.061e-08)
(0.000775646 -7.99608e-08 6.2306e-08)
(0.000774301 -1.3286e-07 4.30339e-08)
(0.000773095 -1.74629e-08 4.20473e-08)
(0.000771495 -5.81094e-08 8.09875e-08)
(0.000769737 -1.12765e-07 3.04062e-08)
(0.000768616 -2.27919e-07 5.49079e-08)
(0.000767346 -9.59038e-08 4.29807e-08)
(0.000765718 -3.40863e-08 4.74188e-08)
(0.00076431 -1.01442e-07 8.33219e-08)
(0.000762749 6.40249e-08 4.61684e-08)
(0.000761278 4.36967e-07 4.10078e-08)
(0.000760051 2.99295e-07 5.27333e-08)
(0.000758941 1.57126e-07 8.89002e-08)
(0.000758302 -4.62375e-08 5.78959e-08)
(-0.000127775 0.00179352 0.000128867)
(-0.00578205 0.00308297 0.000502753)
(-0.0117759 -0.00840356 -6.25461e-05)
(0.00530538 0.0052252 -0.0169253)
(-0.00261448 -0.0119687 -0.000476571)
(0.000565641 -0.0022398 9.13243e-05)
(0.00156178 -0.000494467 -1.66434e-05)
(0.000559042 -5.22431e-05 1.80256e-06)
(0.000924301 -3.87006e-05 -1.43568e-06)
(0.000831967 -1.43199e-05 -3.46113e-07)
(0.000832092 -9.96801e-06 1.63948e-07)
(0.000821651 -5.49431e-06 3.68865e-08)
(0.000816903 -3.29801e-06 5.94132e-08)
(0.000813288 -2.20542e-06 5.44985e-08)
(0.000810544 -1.16012e-06 4.37759e-08)
(0.000808238 -6.11369e-07 1.35154e-07)
(0.00080643 -4.59161e-07 8.74408e-08)
(0.000804682 -4.24981e-07 4.70838e-07)
(0.000803113 -3.13516e-07 6.03231e-08)
(0.000801485 2.81863e-08 8.41185e-08)
(0.00079969 1.58302e-08 4.23298e-08)
(0.000797998 -1.5295e-07 4.49135e-08)
(0.00079654 -1.78155e-07 3.75772e-08)
(0.000794974 -1.99761e-07 5.2251e-08)
(0.000793408 -2.26821e-07 3.36425e-08)
(0.000792116 -2.71884e-07 2.26898e-08)
(0.00079053 -1.6042e-07 2.24899e-08)
(0.000788959 -2.17543e-08 4.7127e-08)
(0.000787682 2.66955e-07 9.72185e-08)
(0.000786241 3.2061e-07 -2.26739e-08)
(0.000784447 3.77755e-07 7.91795e-09)
(0.000782763 2.10549e-07 9.42934e-08)
(0.000781643 -2.04102e-07 -3.14962e-07)
(0.00078018 -2.08979e-07 6.21896e-08)
(0.000778428 -2.03569e-07 4.70252e-08)
(0.00077709 -3.03177e-07 7.37346e-08)
(0.000775714 -2.34294e-07 2.49674e-08)
(0.000774439 -1.39435e-07 4.64861e-08)
(0.000773009 -2.77456e-07 8.76251e-08)
(0.000771403 -2.94112e-07 3.90421e-08)
(0.000770101 -1.48408e-07 3.76149e-08)
(0.000768743 -5.86195e-08 -2.24941e-08)
(0.000767234 1.20523e-08 2.68463e-08)
(0.000765617 -2.11464e-08 3.6637e-08)
(0.000764308 1.59839e-07 7.56805e-08)
(0.000763309 6.6098e-08 5.23913e-08)
(0.000761636 1.87941e-07 2.68966e-08)
(0.000759868 3.96041e-07 4.05722e-08)
(0.000758516 6.86362e-07 -6.00634e-08)
(0.000757898 4.69937e-07 8.96965e-08)
(-0.00545162 0.0047703 0.000573853)
(-0.00905799 -0.00960648 8.18951e-05)
(-0.0131822 -0.00279711 0.000319751)
(0.0092336 -0.0210607 0.00135817)
(-0.00684101 0.0129583 8.90912e-05)
(0.00222658 -0.00233117 2.49684e-05)
(0.000542954 0.000173219 4.5221e-05)
(0.000949489 9.73877e-05 -1.59764e-06)
(0.000867727 4.17473e-06 -3.55546e-07)
(0.000846305 7.44132e-06 6.05233e-08)
(0.00083253 2.06586e-06 9.39179e-08)
(0.000823708 8.22767e-07 4.69033e-08)
(0.000817519 2.20919e-07 6.43606e-08)
(0.000813757 4.2025e-07 3.77447e-08)
(0.000811394 1.94761e-07 5.36764e-08)
(0.000808773 1.72943e-07 4.20047e-08)
(0.000806362 2.05418e-07 4.6078e-08)
(0.000804744 3.2723e-07 6.30077e-08)
(0.000803357 2.75465e-07 7.46245e-08)
(0.000801517 -7.37091e-08 3.12722e-08)
(0.000799525 -1.74355e-07 1.88292e-08)
(0.000797908 -7.11831e-08 5.39349e-08)
(0.000796497 1.63825e-08 5.58822e-08)
(0.000795005 -8.69365e-08 4.79299e-08)
(0.000793467 1.26798e-08 7.05124e-08)
(0.000791946 8.46883e-08 6.27158e-08)
(0.000790564 6.84446e-09 1.39701e-07)
(0.000788988 1.85326e-08 4.52481e-08)
(0.000787604 7.13421e-08 5.47802e-08)
(0.000786322 -1.3904e-07 3.51158e-08)
(0.000784678 -1.78636e-07 -3.12634e-08)
(0.000782772 -1.82317e-07 -1.60843e-08)
(0.000781174 -1.26076e-07 -5.13718e-08)
(0.000779971 -3.54277e-07 2.83859e-08)
(0.000778551 -1.82461e-07 3.64329e-07)
(0.000777169 -5.79074e-08 1.68302e-08)
(0.000775852 -9.91406e-08 5.71898e-08)
(0.000774249 -2.06354e-07 4.68233e-08)
(0.000772904 -5.51838e-07 5.31012e-08)
(0.00077166 -2.3475e-07 5.66611e-08)
(0.000770034 -1.47307e-07 5.77081e-08)
(0.000768817 -1.64484e-07 8.23094e-08)
(0.000767394 -1.13091e-07 1.23569e-07)
(0.000765903 2.27875e-07 6.53322e-08)
(0.000764418 1.02536e-07 1.14463e-08)
(0.000762782 4.01727e-08 1.50208e-08)
(0.000761687 -3.2873e-07 2.48346e-08)
(0.000760669 3.64546e-08 3.15475e-08)
(0.000759019 2.42424e-07 -4.29907e-08)
(0.00075686 2.95345e-07 6.42183e-08)
(-0.00153215 -0.00754021 0.00111688)
(0.00177676 0.00101081 -0.00155766)
(-0.00176011 -0.0147472 -0.0092045)
(0.00687791 -0.0330576 -0.00968346)
(0.000687176 -0.00276117 0.00271948)
(0.0108511 0.0126775 -0.00202842)
(0.000858945 0.000155954 -5.46301e-07)
(0.00144753 7.76337e-05 3.7594e-07)
(0.00138039 4.3967e-05 3.42647e-07)
(0.00138194 2.34521e-05 3.55128e-07)
(0.00137299 1.30512e-05 3.34598e-07)
(0.00136598 7.0662e-06 3.42214e-07)
(0.0013614 4.07054e-06 2.60471e-07)
(0.00135646 2.87732e-06 3.55892e-07)
(0.00135168 1.72522e-06 1.23022e-07)
(0.00134844 1.08754e-06 2.96907e-07)
(0.00134571 6.18945e-07 3.38333e-07)
(0.0013427 5.99563e-07 3.55173e-07)
(0.00133926 2.57578e-07 3.88548e-07)
(0.0013365 -6.76586e-08 5.15593e-07)
(0.00133437 -1.5027e-07 3.26054e-07)
(0.00133189 7.20719e-08 3.35253e-07)
(0.00132908 -3.96235e-08 3.16245e-07)
(0.00132656 -8.56251e-08 2.89037e-07)
(0.00132431 1.04459e-07 1.94482e-07)
(0.00132182 2.28793e-07 2.12365e-07)
(0.00131913 1.49601e-07 2.82077e-07)
(0.00131685 3.36824e-08 3.32214e-07)
(0.00131417 2.1689e-07 2.90704e-07)
(0.0013115 -3.52246e-07 3.69936e-07)
(0.001309 -9.6386e-07 4.039e-07)
(0.0013063 -9.8119e-07 2.06853e-07)
(0.00130403 -7.28456e-07 3.42719e-07)
(0.001302 -3.04777e-07 3.27407e-07)
(0.00129983 2.07857e-08 4.77649e-07)
(0.00129709 2.38654e-07 3.53859e-07)
(0.00129426 1.96798e-07 3.06279e-07)
(0.00129152 3.81365e-07 2.21767e-07)
(0.00128994 8.93418e-07 3.04764e-07)
(0.00128819 3.66844e-07 3.2925e-07)
(0.00128541 4.37702e-08 2.84616e-07)
(0.00128302 -1.78861e-09 3.43869e-07)
(0.00128129 -6.61644e-07 2.17198e-07)
(0.00127829 -6.98213e-07 2.05588e-07)
(0.00127531 -4.9465e-07 3.29253e-07)
(0.00127312 -2.31036e-07 1.82868e-07)
(0.00127113 3.90891e-08 2.73182e-07)
(0.00126938 -2.39246e-07 3.10767e-07)
(0.00126645 -6.1267e-07 3.44742e-07)
(0.00126371 -5.21178e-07 2.05256e-07)
(-0.0135141 -0.00899241 -0.0186428)
(0.00387769 -0.00774218 -0.0111182)
(-0.0173933 0.0485011 -0.0251722)
(-0.0909128 0.0760735 0.0430929)
(-0.00331436 0.00198031 0.00302483)
(0.00108435 -0.0058124 -0.000734919)
(0.000937121 0.000248163 5.14161e-05)
(0.00138541 2.55006e-05 3.42361e-07)
(0.00136647 6.06684e-05 4.20499e-07)
(0.00136581 2.50114e-05 3.51568e-07)
(0.00136399 1.6991e-05 3.40129e-07)
(0.00136035 1.00244e-05 3.39659e-07)
(0.00135715 6.10289e-06 3.40586e-07)
(0.00135381 3.30129e-06 3.37852e-07)
(0.00135089 2.07365e-06 3.38244e-07)
(0.0013477 1.22522e-06 6.03554e-07)
(0.00134467 9.51164e-07 3.35393e-07)
(0.00134218 4.30831e-07 2.72287e-07)
(0.00133948 2.88058e-07 3.30915e-07)
(0.00133673 2.29839e-07 3.05233e-07)
(0.00133417 3.33069e-07 3.84283e-07)
(0.00133155 1.5541e-07 2.54259e-07)
(0.00132892 4.13973e-07 4.97932e-07)
(0.00132682 4.25554e-07 8.15335e-07)
(0.00132445 1.11122e-07 3.36647e-07)
(0.00132163 -1.50265e-07 3.57237e-07)
(0.00131908 -2.73451e-07 2.97079e-07)
(0.00131678 -3.82189e-07 3.29089e-07)
(0.00131392 -1.01414e-06 2.89166e-07)
(0.00131079 -8.03737e-07 3.71751e-07)
(0.00130868 -5.55054e-07 1.15947e-07)
(0.0013066 -2.75495e-07 2.8065e-07)
(0.0013045 5.47861e-07 4.59674e-07)
(0.0013026 6.05154e-07 4.46113e-07)
(0.00129997 2.2885e-07 2.77662e-07)
(0.00129724 1.03865e-07 2.91072e-07)
(0.00129501 3.02444e-07 3.12242e-07)
(0.00129296 5.92705e-07 8.2938e-08)
(0.00128982 1.02142e-06 4.07785e-07)
(0.00128678 5.73081e-07 7.58909e-07)
(0.00128472 2.05101e-07 3.38572e-07)
(0.00128221 -6.98568e-08 3.66394e-07)
(0.00127981 -5.05975e-07 3.23447e-07)
(0.00127846 -1.03098e-06 6.50048e-07)
(0.00127646 -2.2666e-07 3.57818e-07)
(0.00127383 -8.00884e-08 3.38862e-07)
(0.00127131 5.41755e-07 3.15129e-07)
(0.00126869 8.59522e-08 3.12006e-07)
(0.00126636 -2.13446e-07 8.19707e-08)
(0.00126464 -3.07452e-07 4.01155e-07)
(-0.00630441 0.00554901 0.00605577)
(-0.00726637 0.00422232 0.00131981)
(0.0024303 -0.0141902 0.00100144)
(0.00176722 0.0115277 0.002774)
(-0.0310741 -0.0011616 -0.00120796)
(-0.0102777 -0.000474441 0.000288453)
(0.000805828 0.000499064 -2.81454e-05)
(0.00126446 -5.49182e-05 8.59118e-07)
(0.00141189 3.58093e-05 -3.42035e-07)
(0.00132751 1.50467e-05 3.3086e-07)
(0.00135422 1.26705e-05 3.38606e-07)
(0.00135235 8.16997e-06 3.37543e-07)
(0.00135299 5.27234e-06 3.65418e-07)
(0.00135142 3.32486e-06 3.37772e-07)
(0.00134909 2.06975e-06 3.37207e-07)
(0.00134704 1.06457e-06 3.37466e-07)
(0.00134472 5.80423e-07 3.24623e-07)
(0.00134187 2.17972e-07 5.3203e-07)
(0.00133901 -1.70989e-07 4.92528e-07)
(0.00133655 -2.78842e-08 3.27367e-07)
(0.00133428 -4.44862e-08 2.69731e-07)
(0.00133199 2.43871e-08 3.30089e-07)
(0.00132941 1.20169e-08 3.51931e-07)
(0.00132618 2.80583e-07 2.65804e-07)
(0.00132359 9.07727e-08 3.43289e-07)
(0.00132134 6.3492e-08 3.00357e-07)
(0.00131884 -1.85061e-08 3.1989e-07)
(0.00131593 -3.39301e-08 3.22766e-07)
(0.00131365 -1.81012e-07 2.15609e-07)
(0.00131208 5.23988e-07 2.23045e-07)
(0.00130966 8.749e-07 5.27928e-07)
(0.00130768 9.73112e-07 4.662e-07)
(0.00130513 8.68045e-07 2.29283e-07)
(0.0013016 5.90398e-07 1.93376e-07)
(0.0012992 2.09946e-07 3.55823e-07)
(0.00129718 1.9708e-07 3.35283e-07)
(0.00129487 1.63375e-07 2.94994e-07)
(0.00129241 -5.19916e-09 3.12873e-07)
(0.00128991 -2.34575e-07 3.08878e-07)
(0.00128717 4.72704e-08 4.12005e-07)
(0.00128461 1.50434e-07 3.61759e-07)
(0.00128213 3.00182e-07 3.70755e-07)
(0.0012801 8.89902e-07 7.66865e-07)
(0.00127864 9.65381e-07 4.29493e-07)
(0.00127651 6.16829e-07 1.67457e-07)
(0.00127408 4.9464e-07 3.14569e-07)
(0.00127134 5.03363e-07 4.48466e-07)
(0.00126844 6.52969e-07 3.33824e-07)
(0.00126597 3.79828e-07 3.28721e-07)
(0.00126436 2.17892e-07 3.81247e-07)
(5.65562e-05 -0.00946423 -0.000363885)
(0.0113736 -0.00479648 0.00463768)
(0.000181464 0.00682013 -0.00703541)
(0.00798452 0.0113283 0.00926827)
(-0.00413589 0.0144571 -0.000449156)
(-0.0175076 -0.0076896 -0.00121382)
(-0.00147367 -0.00262576 -7.67754e-05)
(0.00132214 -0.000133971 5.33932e-06)
(0.0014349 -5.19583e-06 2.87436e-07)
(0.00133655 4.34484e-06 5.86147e-07)
(0.00135541 5.27173e-06 3.39382e-07)
(0.0013511 4.66098e-06 7.31472e-08)
(0.0013511 3.08595e-06 3.34626e-07)
(0.00134981 2.24276e-06 3.37475e-07)
(0.00134807 1.76699e-06 3.37246e-07)
(0.00134584 1.28611e-06 3.36334e-07)
(0.00134361 4.29755e-07 2.70431e-07)
(0.00134124 1.29625e-07 3.55162e-07)
(0.00133917 -1.18464e-07 3.25178e-07)
(0.00133689 -2.18941e-07 2.97483e-07)
(0.00133424 -1.94218e-07 3.38622e-07)
(0.00133162 -2.25022e-07 3.32125e-07)
(0.00132924 -3.97881e-07 1.54995e-07)
(0.00132691 -2.82045e-07 3.88293e-07)
(0.00132417 4.36508e-08 2.74658e-07)
(0.00132149 2.51524e-07 2.70356e-07)
(0.00131896 4.77496e-07 3.9139e-07)
(0.00131657 7.62654e-07 3.56546e-07)
(0.00131462 1.37675e-06 2.29271e-07)
(0.0013121 9.89501e-07 3.05695e-07)
(0.00130923 6.83743e-07 3.18955e-07)
(0.00130658 6.09502e-07 3.0855e-07)
(0.00130401 -5.73106e-08 2.82583e-07)
(0.00130177 -5.23634e-08 3.24331e-07)
(0.00129948 1.66339e-07 3.1597e-07)
(0.00129718 1.47892e-07 3.10037e-07)
(0.00129475 2.56916e-08 2.99939e-07)
(0.00129246 6.47355e-08 3.30411e-07)
(0.00128988 -4.00485e-07 1.90101e-07)
(0.00128727 -4.95725e-07 2.60933e-07)
(0.00128504 -8.1666e-08 3.00937e-07)
(0.00128313 1.8194e-07 3.28941e-07)
(0.00128063 5.54208e-07 5.47636e-07)
(0.00127811 5.87906e-07 3.28339e-07)
(0.00127586 1.38896e-07 2.84394e-07)
(0.00127368 9.07561e-08 3.18002e-07)
(0.0012715 1.95888e-08 3.69183e-07)
(0.00126853 4.09281e-07 3.1906e-07)
(0.00126581 2.69906e-07 3.44473e-07)
(0.0012639 4.19534e-07 5.35707e-07)
(-0.00139803 -0.000274161 -0.000480832)
(-0.00949215 -0.00854723 0.000131559)
(-0.0197598 -0.00830951 0.00382785)
(0.012571 -0.0109481 -0.000275461)
(0.0123463 0.0205219 0.0103675)
(-0.00126837 -0.00983381 0.00107591)
(-0.000265551 -0.00107666 -2.85369e-05)
(0.00191336 -0.000135528 1.44369e-05)
(0.00144448 2.34164e-05 7.0809e-07)
(0.00134031 1.08573e-05 3.50565e-07)
(0.00135467 5.37795e-06 3.58931e-07)
(0.00134965 2.61831e-06 7.73843e-07)
(0.00134998 1.78197e-06 3.36135e-07)
(0.00134978 7.30242e-07 3.37947e-07)
(0.00134789 -2.27316e-08 3.63314e-07)
(0.00134536 -1.6975e-07 3.12705e-07)
(0.00134328 5.60016e-08 3.35704e-07)
(0.00134119 -6.39577e-08 3.27922e-07)
(0.00133857 2.18187e-07 3.5153e-07)
(0.00133646 2.59189e-07 3.63661e-07)
(0.00133428 3.71531e-08 3.6643e-07)
(0.00133174 1.85291e-07 3.13625e-07)
(0.00132934 2.7686e-07 5.53849e-07)
(0.00132674 1.06181e-07 3.78739e-07)
(0.00132426 6.15028e-08 2.61431e-07)
(0.00132188 -8.0744e-08 3.67501e-07)
(0.00131947 2.94459e-07 3.84197e-07)
(0.00131705 5.02807e-07 3.30445e-07)
(0.00131392 7.54918e-07 4.96606e-07)
(0.0013112 8.15915e-07 3.26722e-07)
(0.00130918 3.736e-07 3.53717e-07)
(0.00130675 -1.08114e-08 3.19699e-07)
(0.0013043 2.877e-07 3.55337e-07)
(0.00130188 2.08065e-07 3.26096e-07)
(0.00129945 2.63375e-07 2.97011e-07)
(0.00129701 1.66031e-08 3.24728e-07)
(0.00129477 -1.18318e-07 3.25517e-07)
(0.00129188 -4.01059e-07 3.24754e-07)
(0.00128921 -3.23546e-07 3.23217e-07)
(0.00128757 -3.38606e-07 1.84967e-07)
(0.00128545 1.00456e-07 3.45808e-07)
(0.00128292 2.38991e-07 1.27657e-06)
(0.0012806 -1.91439e-08 3.10186e-07)
(0.00127812 8.57433e-08 -4.48736e-08)
(0.00127588 -2.54865e-07 3.43528e-07)
(0.00127393 -3.82541e-07 3.1755e-07)
(0.00127174 -9.00431e-07 1.21387e-07)
(0.00126875 -1.32634e-06 3.00471e-07)
(0.00126597 -5.23403e-07 3.80323e-07)
(0.0012635 7.61511e-08 3.39468e-07)
(0.0114539 -0.0172246 0.00150891)
(0.0144586 0.0207048 -5.07153e-05)
(-0.0600662 -0.00796118 -0.000683929)
(-0.00191927 0.000973374 0.00124009)
(-0.00128729 0.0138644 -0.00870161)
(0.00920709 -0.00600153 -0.00224224)
(0.000731266 0.00191678 -8.17038e-05)
(0.00108857 0.000106413 4.77875e-05)
(0.0013974 2.32253e-05 6.64562e-07)
(0.00131475 4.90361e-06 3.79469e-07)
(0.0013451 2.35553e-07 2.9492e-07)
(0.0013466 -1.41204e-06 3.03727e-07)
(0.00134874 -1.04245e-06 3.6927e-07)
(0.00134755 -1.15134e-06 3.3651e-07)
(0.00134694 -1.17394e-06 3.44992e-07)
(0.00134594 -9.62845e-07 3.6128e-07)
(0.00134375 -4.84619e-07 3.36872e-07)
(0.00134145 -1.38226e-07 3.76437e-07)
(0.00133958 -1.81017e-07 2.84427e-07)
(0.00133667 3.34969e-07 2.41903e-07)
(0.00133415 3.96413e-07 4.81368e-07)
(0.00133192 3.66673e-07 3.56256e-07)
(0.00132914 3.06784e-07 3.05197e-07)