/*--------------------------------*- C++ -*----------------------------------*\
| =========                 |                                                 |
| \\      /  F ield         | OpenFOAM: The Open Source CFD Toolbox           |
|  \\    /   O peration     | Version:  5.0                                   |
|   \\  /    A nd           | Web:      www.OpenFOAM.org                      |
|    \\/     M anipulation  |                                                 |
\*---------------------------------------------------------------------------*/
FoamFile
{
    version     2.0;
    format      ascii;
    class       volVectorField;
    location    "3.2";
    object      U_0;
}
// * * * * * * * * * * * * * * * * * * * * * * * * * * * * * * * * * * * * * //

dimensions      [0 1 -1 0 0 0 0];

internalField   nonuniform List<vector> 
8024
(
(-0.00266175 0.00771473 -0.000159061)
(-0.0203806 -0.0049963 1.91252e-05)
(0.00365161 0.000191894 -0.00834427)
(-0.0231087 -0.00679719 -0.000406842)
(-0.0193969 -0.000756824 -0.000414082)
(0.00179025 0.00224662 0.000110791)
(0.000380089 -3.68962e-05 2.02273e-05)
(0.000893884 -5.61627e-05 -1.81713e-06)
(0.000839295 -3.33205e-05 -1.63639e-07)
(0.000835995 -2.15993e-05 9.73858e-08)
(0.00082973 -1.36272e-05 1.01244e-07)
(0.000825652 -8.75663e-06 5.72107e-08)
(0.000823027 -5.53211e-06 -3.28328e-10)
(0.000820683 -3.48174e-06 4.61513e-08)
(0.000818584 -2.21135e-06 5.05533e-08)
(0.000816523 -1.4811e-06 3.36853e-08)
(0.000814627 -9.89741e-07 5.28722e-08)
(0.000813037 -5.34709e-07 8.3784e-08)
(0.000811408 -2.79119e-07 5.9895e-08)
(0.000809863 -2.55033e-07 2.16383e-08)
(0.000808232 -1.29422e-07 6.38739e-08)
(0.000806552 -2.54767e-08 3.92316e-08)
(0.000805028 -1.00276e-07 8.57057e-09)
(0.000803535 -3.83265e-08 4.51798e-08)
(0.000801997 4.44472e-08 5.67402e-08)
(0.000800615 1.53892e-07 8.80471e-08)
(0.000799139 3.87783e-08 4.90994e-08)
(0.000797782 -4.01549e-08 4.77803e-08)
(0.000795841 -7.91072e-09 1.26668e-07)
(0.000794048 -3.19957e-07 2.385e-07)
(0.000792688 -7.85576e-07 -7.72726e-08)
(0.000790758 -6.51971e-07 -2.08104e-08)
(0.000789468 -5.16764e-07 8.31471e-08)
(0.000788518 -2.82833e-07 4.88749e-08)
(0.000787117 1.73775e-08 8.13023e-08)
(0.000785307 1.25933e-07 7.06184e-08)
(0.000783587 3.35142e-08 3.3695e-08)
(0.000782102 9.23525e-08 3.46981e-08)
(0.000780624 3.20396e-07 5.96769e-08)
(0.00077948 3.49087e-07 8.79354e-08)
(0.00077822 2.15727e-08 3.04737e-08)
(0.000776621 -1.16329e-08 -4.55913e-08)
(0.000775354 -2.76012e-07 9.33652e-08)
(0.000773819 -2.08084e-07 2.36912e-07)
(0.000772246 -1.16386e-07 4.99456e-08)
(0.000770764 -9.56325e-08 2.58525e-08)
(0.000769363 -2.27266e-07 5.19523e-08)
(0.000768151 -4.60751e-07 4.20545e-08)
(0.000766439 -2.78497e-07 -2.24734e-08)
(0.000764643 -2.14894e-07 7.36996e-08)
(-0.00138125 -0.00499442 0.00224757)
(-0.0169446 0.00441756 -0.000474703)
(-0.033575 0.0127563 0.000265252)
(-0.0660425 -3.97521e-05 0.00401222)
(-0.00259987 0.00646094 0.000621805)
(0.000686505 0.00469952 -3.73903e-05)
(0.000454104 -0.000104324 3.93651e-05)
(0.000907489 -4.81418e-05 -2.48428e-06)
(0.000862898 -4.56632e-06 -1.99266e-07)
(0.000846742 -1.19895e-05 1.98515e-08)
(0.000837295 -7.22798e-06 3.68421e-08)
(0.000830407 -5.113e-06 4.06004e-08)
(0.00082577 -3.38327e-06 3.61223e-08)
(0.00082222 -2.28495e-06 4.61488e-08)
(0.000819499 -1.54771e-06 5.04499e-08)
(0.000817252 -1.19858e-06 5.99127e-08)
(0.000815386 -5.81137e-07 5.38353e-08)
(0.000813556 -3.60423e-07 6.92509e-08)
(0.000811618 -7.3174e-08 4.26974e-08)
(0.000809819 -1.41265e-07 2.34569e-08)
(0.000808231 -8.47267e-08 1.14911e-07)
(0.000806572 -3.07173e-08 7.34272e-08)
(0.000805044 2.83452e-07 3.77246e-08)
(0.000803706 1.38868e-07 2.53237e-08)
(0.000802213 -4.60399e-11 -4.18037e-09)
(0.000800478 -6.75495e-08 4.34577e-08)
(0.000798836 -2.40408e-07 3.35424e-08)
(0.00079737 -3.46916e-07 4.7238e-08)
(0.000795662 -9.1866e-07 7.13337e-08)
(0.000793671 -5.84689e-07 -9.35177e-08)
(0.000792411 -6.97546e-07 1.61701e-07)
(0.000791445 -3.53349e-07 4.01317e-08)
(0.000790008 2.83124e-07 1.88952e-07)
(0.000788762 4.6878e-07 1.7819e-07)
(0.000787083 4.53287e-08 5.06525e-08)
(0.000785264 -2.79145e-08 4.36551e-08)
(0.000783905 8.86723e-08 5.55502e-08)
(0.000782493 1.67894e-07 5.52337e-08)
(0.000780897 3.29457e-07 1.99499e-08)
(0.000779214 4.96018e-07 3.34135e-08)
(0.000777791 1.24018e-07 5.78269e-08)
(0.000776345 -1.69862e-07 5.93837e-08)
(0.000774868 -2.80768e-07 7.05222e-08)
(0.000773725 -3.47964e-07 7.68817e-08)
(0.000772352 -1.29331e-07 5.79064e-08)
(0.000770802 -1.39116e-07 6.32559e-08)
(0.000769376 5.75993e-08 6.71588e-08)
(0.000768009 -1.33751e-07 5.35157e-08)
(0.000766405 -3.69346e-07 8.36518e-08)
(0.000765392 -2.44853e-07 2.68026e-08)
(0.00495087 -0.00190799 1.72504e-05)
(0.000921975 0.00571338 -0.000610198)
(0.00198593 -0.0017885 0.000424745)
(0.0101298 -0.0122843 0.000583741)
(0.0132635 0.00858475 -8.58261e-05)
(-0.00155616 0.00615228 -4.10461e-05)
(0.00144448 0.000428227 1.79179e-05)
(0.000475827 -2.36469e-05 -1.1827e-06)
(0.000899596 6.89287e-06 -1.93236e-06)
(0.000832843 -2.7183e-06 -4.01703e-07)
(0.000838367 -6.93975e-07 1.68229e-07)
(0.000830486 -7.45242e-07 4.28932e-08)
(0.000826583 -5.30375e-07 2.65895e-07)
(0.000822992 -3.65792e-07 5.36724e-08)
(0.000819953 -2.66885e-07 5.30188e-08)
(0.000817738 -2.00465e-07 5.86087e-08)
(0.00081568 -2.34946e-07 -9.38856e-08)
(0.000813674 -3.16611e-07 4.98822e-08)
(0.000811683 -4.09281e-07 1.08726e-07)
(0.000809848 -2.00234e-07 4.29367e-08)
(0.00080837 -1.23811e-07 3.28503e-08)
(0.000807011 -5.72821e-08 4.59306e-08)
(0.000805238 -1.5153e-08 8.15604e-08)
(0.000803179 2.03646e-08 1.69821e-08)
(0.000801738 1.91951e-08 4.97398e-08)
(0.000800315 -6.24616e-08 3.34096e-08)
(0.000798791 -6.37553e-08 5.43783e-08)
(0.000796939 -9.22698e-08 6.44005e-08)
(0.000795549 -9.40712e-08 -4.1502e-08)
(0.000794331 3.63991e-07 4.13854e-08)
(0.000792981 8.11186e-07 9.82882e-08)
(0.000791985 7.4873e-07 5.8641e-08)
(0.000790494 4.94105e-07 2.93125e-07)
(0.000788217 3.65848e-07 1.41871e-07)
(0.000786494 2.8747e-08 9.77865e-08)
(0.00078536 9.85169e-08 5.10782e-08)
(0.00078383 8.04846e-08 6.63727e-08)
(0.0007824 -6.92483e-09 6.34437e-08)
(0.000781031 3.26775e-08 4.38112e-08)
(0.00077922 -6.71081e-08 3.99313e-08)
(0.000777386 3.44201e-08 7.62346e-08)
(0.000776116 -7.74911e-08 6.48472e-08)
(0.000775135 3.06193e-07 1.89429e-07)
(0.000774011 2.20367e-07 9.71844e-08)
(0.000772511 1.8375e-07 7.86751e-08)
(0.000770998 1.80919e-07 1.15547e-07)
(0.000769371 3.40221e-07 5.62868e-08)
(0.000767618 1.58081e-07 5.70686e-08)
(0.000766307 8.51853e-08 6.36589e-08)
(0.000765408 8.04578e-08 9.25064e-08)
(0.0072517 -0.00787053 9.22249e-05)
(-0.000666184 -0.00392528 0.000308483)
(0.00824119 0.0156996 -0.000109971)
(-0.00493651 0.00136459 -0.00022747)
(0.00696668 -0.00541074 -0.000822285)
(0.000793599 -0.00264995 7.38356e-05)
(-0.000280608 -0.000521211 -2.18332e-05)
(0.000521614 -3.01505e-05 1.83227e-06)
(0.000912221 2.47978e-06 -1.6241e-06)
(0.000837254 5.67864e-06 -2.90375e-07)
(0.000839815 4.93289e-06 1.47257e-07)
(0.000830643 3.74718e-06 1.10462e-08)
(0.000826265 2.54755e-06 5.51492e-08)
(0.000822563 1.71521e-06 4.96495e-08)
(0.000819714 1.12992e-06 4.98038e-08)
(0.000817298 7.84705e-07 5.07323e-08)
(0.000815245 3.1142e-07 7.57799e-08)
(0.000813342 1.31553e-07 4.97676e-08)
(0.000811767 -2.26809e-07 3.61787e-08)
(0.000810179 -2.6896e-07 3.18448e-08)
(0.000808412 -1.70278e-07 -6.8019e-08)
(0.000806708 -1.62533e-07 4.99323e-08)
(0.000805141 -3.39333e-07 3.36738e-08)
(0.000803748 -7.61096e-08 6.36634e-08)
(0.000802108 8.3154e-08 2.68121e-08)
(0.000800375 2.07293e-07 3.06593e-08)
(0.000798799 2.86702e-07 6.75727e-08)
(0.000797333 3.56656e-07 8.69239e-08)
(0.00079623 8.30278e-07 9.42595e-08)
(0.000794799 5.36302e-07 4.22324e-08)
(0.000792886 7.13605e-07 2.23078e-08)
(0.000791042 4.93551e-07 -2.77972e-08)
(0.000789525 9.38959e-08 6.98697e-08)
(0.000788178 -1.28175e-07 4.81463e-08)
(0.000786748 1.45968e-07 5.57096e-08)
(0.000785328 8.32461e-08 8.13281e-08)
(0.000783773 3.26437e-08 4.21608e-08)
(0.000782434 -2.30164e-08 3.82482e-08)
(0.000780821 -2.97904e-07 1.0593e-08)
(0.000779216 -2.67053e-07 1.96304e-08)
(0.000777778 -6.40601e-09 4.67932e-08)
(0.000776684 1.83952e-07 3.31414e-08)
(0.000775238 3.6904e-07 1.23268e-07)
(0.000773569 3.70618e-07 -5.27846e-08)
(0.000772299 5.29986e-08 2.62273e-08)
(0.000770995 6.84608e-10 4.02674e-08)
(0.000769344 -8.35177e-08 8.69104e-08)
(0.000767688 6.46699e-08 4.6197e-08)
(0.000766305 2.85395e-07 4.23171e-08)
(0.000765184 2.32207e-07 4.70584e-08)
(0.00714378 -0.000583609 -0.000478142)
(0.00127242 -0.00612167 0.000278134)
(-0.001391 0.00332982 0.000454328)
(-0.00820687 -0.010208 -0.000109149)
(0.00396913 -0.0175161 0.000107992)
(0.00645053 -0.00219608 0.00032317)
(0.002755 1.0654e-07 4.58196e-05)
(0.00041329 1.22403e-06 7.14875e-06)
(0.000906443 3.54549e-05 -1.95258e-06)
(0.000835916 2.29969e-05 -4.48345e-07)
(0.000836006 1.42799e-05 1.14054e-07)
(0.000827533 8.91731e-06 -8.77919e-09)
(0.000824057 5.66955e-06 2.43908e-07)
(0.000821227 3.49131e-06 4.90271e-08)
(0.000818793 2.15949e-06 4.13134e-08)
(0.000816717 1.36002e-06 4.38311e-08)
(0.000814865 8.89207e-07 4.86579e-08)
(0.000813004 4.89893e-07 4.72142e-08)
(0.000811185 5.11906e-07 2.27121e-07)
(0.000809923 4.16052e-07 -5.69987e-08)
(0.000808506 1.77101e-07 6.35567e-08)
(0.000806802 1.75116e-07 1.62848e-08)
(0.000805348 1.68486e-07 3.19856e-08)
(0.000803708 1.53734e-07 9.37997e-08)
(0.000802092 7.95204e-08 1.72364e-07)
(0.000800567 8.53423e-08 6.58374e-08)
(0.000798975 1.97128e-07 6.77193e-08)
(0.000797613 2.54298e-07 3.12402e-08)
(0.000795767 2.97495e-07 -2.13163e-09)
(0.000794177 1.85091e-07 1.59082e-07)
(0.000792921 5.3066e-08 5.87322e-08)
(0.000791206 -1.0562e-07 2.71471e-08)
(0.000789714 1.16079e-07 1.73222e-07)
(0.000788281 5.48536e-08 5.03714e-08)
(0.000786758 1.11271e-07 6.34204e-08)
(0.000785218 -2.04704e-08 4.52808e-08)
(0.000783697 -4.29721e-08 -1.13615e-07)
(0.000781988 -8.4681e-09 4.90183e-08)
(0.000780728 -6.192e-08 1.00477e-07)
(0.000779586 9.47534e-08 8.87614e-08)
(0.00077795 1.61228e-07 7.44587e-08)
(0.000776583 5.51782e-07 1.62788e-07)
(0.000775364 9.47749e-08 1.19936e-08)
(0.000773613 1.25424e-07 9.26629e-08)
(0.000772046 -6.30756e-08 4.30303e-08)
(0.000770827 -1.98749e-07 4.6993e-08)
(0.000769451 -4.66805e-07 -4.52859e-08)
(0.000768079 -3.58185e-07 -7.29413e-08)
(0.00076651 -2.10461e-07 4.13881e-09)
(0.000764764 1.0793e-07 9.32729e-08)
(-0.0135941 0.000930952 0.00242178)
(-0.000910535 -0.000930379 -0.000280458)
(0.0218124 0.0110468 -0.000241311)
(-0.00440391 0.0010273 0.000147894)
(0.00549686 -0.000925084 0.000367927)
(9.68903e-05 0.0104037 -0.000316774)
(0.00228346 0.000432811 7.27993e-06)
(0.000470076 4.60983e-05 2.8542e-05)
(0.000861361 5.74081e-05 -1.82309e-06)
(0.000811262 3.16649e-05 -4.13464e-07)
(0.000822197 1.86133e-05 1.31468e-07)
(0.000819866 1.09835e-05 5.47392e-08)
(0.000819474 6.72146e-06 9.38429e-08)
(0.00081817 4.05322e-06 4.90715e-08)
(0.000817047 2.52533e-06 1.29372e-07)
(0.000815708 1.51547e-06 1.0791e-07)
(0.000814157 9.45762e-07 5.30429e-08)
(0.00081287 6.76277e-07 6.79137e-08)
(0.000811673 4.75667e-07 2.76767e-08)
(0.000809758 6.04429e-07 1.9529e-07)
(0.000808109 4.63871e-07 -1.92831e-07)
(0.000806697 4.04389e-07 2.91802e-07)
(0.000805114 3.64658e-07 7.36152e-08)
(0.000803636 1.95224e-07 6.4275e-08)
(0.000802023 1.9528e-07 5.87692e-08)
(0.000800521 9.52072e-08 3.35137e-08)
(0.000799009 -1.38079e-08 5.60256e-08)
(0.000797455 -1.21188e-07 1.92454e-08)
(0.000796141 -1.2301e-07 4.40288e-08)
(0.000794491 -1.37302e-07 5.71799e-08)
(0.000792521 -4.07945e-07 -1.57848e-09)
(0.00079112 -1.58606e-07 2.23983e-09)
(0.000789725 -1.47028e-07 1.40558e-08)
(0.00078817 -9.36433e-08 5.56236e-08)
(0.000786653 -1.13832e-07 6.10892e-08)
(0.000785135 8.16474e-09 4.8106e-08)
(0.000783789 5.85574e-08 8.50757e-08)
(0.000782411 1.82944e-07 5.20079e-08)
(0.000780951 3.39735e-07 1.08757e-07)
(0.000779495 1.92139e-07 5.97064e-08)
(0.000778348 2.23719e-07 2.53333e-08)
(0.000776599 2.86635e-07 -2.97298e-08)
(0.000774704 1.24688e-07 4.87383e-08)
(0.000773371 -3.13806e-08 4.30658e-08)
(0.000771895 -2.51411e-08 3.89843e-08)
(0.000770493 -1.84049e-07 4.68015e-08)
(0.000769149 -4.8222e-07 -3.39927e-07)
(0.000768012 -5.41787e-07 5.95293e-08)
(0.000766888 -4.98221e-07 9.63323e-08)
(0.000765312 -1.91067e-07 1.85366e-07)
(-0.0104785 -0.00253115 0.000635213)
(0.00281162 -0.0011773 0.00077175)
(-0.000636617 -0.0058332 -0.000847094)
(0.0030813 0.00634349 -0.000737012)
(0.0274784 -0.00967031 -0.00041011)
(-0.00615197 -0.00175073 0.000679721)
(-0.000456611 -0.000358849 6.08888e-05)
(0.000329047 5.89302e-05 7.96805e-06)
(0.000826826 3.38005e-05 -1.41125e-06)
(0.000786952 1.80657e-05 -3.79921e-07)
(0.000810055 1.1305e-05 1.80481e-07)
(0.000812612 6.82774e-06 4.14486e-08)
(0.000815362 4.10737e-06 5.89737e-08)
(0.000815963 2.55988e-06 5.20774e-08)
(0.00081561 1.52561e-06 5.02461e-08)
(0.000814736 1.03653e-06 5.49635e-08)
(0.000813812 6.50973e-07 5.3267e-08)
(0.000812414 5.42978e-07 3.93451e-08)
(0.000811093 4.42365e-07 9.25439e-08)
(0.000809905 8.4493e-08 6.35856e-08)
(0.000808253 2.34065e-07 4.56412e-08)
(0.000806676 1.58318e-07 4.57358e-08)
(0.000805085 2.18961e-07 3.53166e-08)
(0.000803495 1.1893e-07 4.72275e-08)
(0.000801966 1.62934e-07 5.17417e-09)
(0.000800305 1.74078e-07 2.07305e-07)
(0.000798705 -1.47649e-08 7.06427e-08)
(0.000797477 -5.75658e-08 7.06661e-08)
(0.000795749 -3.77145e-07 6.90637e-08)
(0.000793824 -6.98313e-07 1.69041e-08)
(0.000792897 -2.63871e-07 1.38744e-07)
(0.000791535 -1.25627e-07 1.92701e-07)
(0.000789798 -8.40203e-08 5.45049e-08)
(0.000788325 -5.68296e-08 6.35792e-08)
(0.000786886 -5.7612e-08 1.60777e-07)
(0.000785434 7.44343e-08 1.56981e-07)
(0.000783916 1.4182e-07 4.8294e-08)
(0.000782339 1.47628e-07 5.81677e-08)
(0.000780738 1.54817e-07 4.73498e-08)
(0.000779439 2.36118e-07 4.19165e-08)
(0.000778066 6.74726e-08 4.46172e-08)
(0.000776458 -3.01463e-07 6.99405e-09)
(0.000774966 -1.62619e-07 2.20299e-08)
(0.000773426 -2.26344e-07 -5.89003e-08)
(0.000771857 -9.44445e-08 1.5487e-08)
(0.000770258 -2.67212e-08 4.87399e-08)
(0.000769008 -4.98799e-08 -1.74637e-07)
(0.000768064 -3.19089e-07 6.68165e-08)
(0.000766957 -2.41773e-07 2.36222e-08)
(0.000765624 -3.11464e-07 3.56958e-08)
(-0.000561815 0.00135012 -0.000467698)
(0.00980511 -0.000357962 9.03456e-05)
(-0.000671701 0.0105001 -3.83699e-05)
(0.00492579 -0.00392782 0.00029696)
(-0.00502098 0.00241284 0.000166983)
(0.00239287 0.000959558 0.000139672)
(0.000964887 -0.000332749 3.06138e-05)
(0.000415549 -1.44044e-05 6.27791e-07)
(0.000837898 -6.59668e-06 -1.16298e-06)
(0.000783159 -2.40003e-06 -4.97979e-07)
(0.000808063 -8.967e-07 1.88422e-07)
(0.000810815 -1.80735e-07 9.38867e-08)
(0.000814107 7.13601e-08 6.45548e-08)
(0.000814924 1.35269e-07 5.67601e-08)
(0.000815131 1.58704e-07 9.051e-08)
(0.000814607 2.15109e-07 5.34888e-08)
(0.000813535 2.33612e-07 1.46589e-07)
(0.000812605 1.94495e-07 9.00709e-08)
(0.000811098 1.47812e-07 8.90641e-08)
(0.000809497 6.63126e-08 4.44156e-08)
(0.000808201 -7.94055e-08 4.93657e-08)
(0.000806677 -8.3496e-08 4.35686e-08)
(0.000805064 -2.57175e-07 3.90234e-08)
(0.000803566 -1.49814e-07 4.90711e-08)
(0.000802091 -2.99186e-07 6.42995e-08)
(0.000800298 -2.54793e-07 1.16445e-08)
(0.000798719 -4.46892e-08 -5.84222e-08)
(0.000797005 5.4845e-08 2.52092e-07)
(0.000795345 -1.1868e-07 3.90721e-08)
(0.000794638 3.98988e-07 8.6761e-08)
(0.000793242 4.81771e-07 8.81726e-08)
(0.000791347 2.15246e-07 3.59924e-08)
(0.000789812 3.11356e-07 4.93053e-08)
(0.000788204 1.15505e-07 4.78737e-08)
(0.000786818 7.00746e-08 4.36746e-08)
(0.000785385 -5.42589e-08 5.70336e-08)
(0.00078388 -1.00657e-07 2.2583e-08)
(0.000782427 -2.15901e-07 5.04453e-08)
(0.000781061 5.31868e-08 3.88693e-08)
(0.000779385 9.56763e-08 1.77498e-08)
(0.000777676 -6.72732e-08 1.54943e-08)
(0.000776312 -4.46275e-08 4.67843e-08)
(0.0007748 -1.17784e-07 -9.25148e-08)
(0.000773458 -1.55406e-07 4.65141e-08)
(0.000772146 -4.66944e-08 3.81864e-08)
(0.00077055 1.01156e-07 4.49733e-08)
(0.000768785 4.5601e-07 5.70136e-08)
(0.000767774 6.12192e-07 7.04755e-08)
(0.000766907 2.35899e-07 4.4586e-08)
(0.000766003 -2.96266e-08 -4.90437e-08)
(-7.77192e-05 0.00186891 0.000124461)
(-0.00526658 0.00333971 0.000405952)
(-0.0135469 -0.00851791 0.000569865)
(0.0111026 0.000335104 0.00126008)
(-0.00530673 -0.0115235 -0.000349145)
(-0.000406104 -0.0021062 0.000109852)
(0.00130776 -0.000428419 -2.30491e-05)
(0.00044754 -4.27831e-05 1.32542e-06)
(0.000846277 -4.24799e-05 -1.28886e-06)
(0.000794034 -1.67415e-05 -2.32835e-07)
(0.000812793 -1.12637e-05 1.69963e-07)
(0.000813796 -6.24316e-06 3.0936e-08)
(0.00081574 -3.71443e-06 4.89668e-08)
(0.00081606 -2.20366e-06 5.35203e-08)
(0.000815702 -1.20687e-06 4.37543e-08)
(0.000814825 -7.14982e-07 1.14205e-07)
(0.000813783 -3.15492e-07 5.84948e-08)
(0.000812303 -1.81551e-07 2.43633e-09)
(0.000810931 -2.65871e-07 5.18772e-08)
(0.00080962 -4.5278e-08 7.76349e-08)
(0.000808066 -1.57933e-07 5.13168e-08)
(0.000806455 -2.50675e-07 2.97129e-08)
(0.000805004 -2.72017e-07 3.62632e-10)
(0.000803445 -2.54703e-07 5.29332e-08)
(0.000801837 -3.06097e-07 1.49469e-08)
(0.000800626 -3.50852e-07 -1.5344e-07)
(0.000799093 -1.57386e-07 3.64093e-08)
(0.000797386 -6.43074e-08 7.83997e-08)
(0.000796179 1.81632e-07 6.45452e-08)
(0.000794573 4.69188e-07 3.18862e-08)
(0.000792665 1.85195e-07 1.43947e-07)
(0.000791319 1.34488e-07 4.56279e-08)
(0.000789671 -9.39935e-09 7.63415e-08)
(0.000788022 -8.10385e-08 -2.02264e-08)
(0.000786674 -9.97839e-08 3.56827e-08)
(0.000785221 -2.78414e-07 3.26522e-08)
(0.000783715 -2.12846e-07 5.10343e-08)
(0.000782532 -2.24587e-07 5.39679e-08)
(0.000781128 -4.4597e-07 8.81433e-08)
(0.000779289 -6.1285e-07 3.77968e-08)
(0.000777891 -2.84693e-07 1.29834e-08)
(0.000776396 -1.61196e-07 4.74402e-08)
(0.000774829 3.76638e-08 5.07499e-08)
(0.000773516 8.86369e-08 4.00617e-08)
(0.000772178 9.01568e-08 5.8151e-08)
(0.000770886 1.40184e-07 -2.14289e-09)
(0.000769644 4.03731e-07 7.77377e-08)
(0.000767785 9.79945e-07 2.67166e-08)
(0.000766154 6.45546e-07 -9.97452e-08)
(0.000765363 3.37971e-07 8.89049e-08)
(-0.00591217 0.00511313 0.00057095)
(-0.00812255 -0.00896068 -0.000101592)
(-0.0114413 -0.00420067 6.99917e-05)
(0.00649007 -0.0134686 -0.000344075)
(-0.00681814 0.009984 4.38477e-05)
(0.00157504 -0.00288853 7.20049e-05)
(0.000463355 8.91412e-05 4.58594e-05)
(0.000866784 -1.85166e-05 -1.45728e-06)
(0.000819974 -4.88746e-05 -3.47707e-07)
(0.000822059 -2.29572e-05 5.38932e-08)
(0.000821197 -1.54216e-05 8.85289e-08)
(0.000820258 -9.43694e-06 4.33457e-08)
(0.000819157 -5.95709e-06 8.64902e-08)
(0.000818057 -3.61874e-06 -2.37418e-07)
(0.000816991 -2.26624e-06 4.17591e-08)
(0.00081572 -1.31671e-06 6.33003e-08)
(0.0008142 -9.09656e-07 4.11494e-08)
(0.000812666 -6.41903e-07 1.42254e-07)
(0.000811268 -3.23496e-07 9.38326e-08)
(0.000809632 -2.60516e-07 6.25012e-08)
(0.000807945 -1.29461e-07 2.23794e-08)
(0.000806537 -1.27642e-07 9.14038e-08)
(0.000805061 -5.16028e-08 5.80617e-08)
(0.000803526 -1.08168e-07 4.87199e-08)
(0.000801974 2.07978e-08 5.76637e-08)
(0.000800487 1.98425e-08 -1.34522e-08)
(0.00079908 1.22041e-08 4.21452e-08)
(0.000797429 5.66036e-08 4.57427e-08)
(0.00079601 3.30071e-07 5.33193e-09)
(0.00079464 -2.13298e-07 5.85623e-08)
(0.000792821 -8.98855e-08 1.926e-07)
(0.000791103 -1.96842e-07 3.47114e-08)
(0.000789543 -5.41348e-07 2.51662e-08)
(0.000788093 -3.62466e-07 1.1294e-07)
(0.000786573 -1.4754e-07 6.4479e-08)
(0.000785246 -9.23741e-09 2.14456e-08)
(0.000783949 -7.9216e-08 4.38051e-08)
(0.000782138 -1.11921e-07 4.61398e-08)
(0.000780579 -4.24475e-07 7.07173e-09)
(0.00077959 -5.1678e-07 6.29168e-08)
(0.000778243 -2.74058e-07 6.28205e-08)
(0.000776717 -2.56097e-07 3.49709e-08)
(0.000775113 -9.51757e-08 2.37935e-08)
(0.000773523 1.64132e-07 4.1583e-08)
(0.000772209 1.48168e-07 -3.42282e-08)
(0.00077094 2.21325e-07 -1.34829e-07)
(0.00076983 5.21278e-08 1.75474e-08)
(0.00076807 -1.3243e-09 2.74167e-08)
(0.00076609 3.46273e-07 -7.59355e-09)
(0.000764777 2.3334e-07 7.1346e-08)
(-0.000370557 -0.00809237 0.00104842)
(0.00156266 -0.00361643 0.000601149)
(0.0171655 -0.0101947 -0.0191521)
(0.011627 -0.0515677 -0.0235581)
(0.000726649 -0.00570041 0.0020246)
(0.011365 0.0115276 -0.00204957)
(0.000946188 -0.000158403 -2.60693e-06)
(0.00147472 -8.01125e-05 3.74613e-07)
(0.00138883 -4.71619e-05 3.46884e-07)
(0.00138685 -3.07804e-05 3.56735e-07)
(0.00137862 -1.94619e-05 3.7576e-07)
(0.00137319 -1.25671e-05 2.69827e-07)
(0.00136972 -7.93956e-06 2.7079e-07)
(0.00136629 -4.92688e-06 1.35372e-07)
(0.00136301 -3.14339e-06 3.3907e-07)
(0.00135983 -2.09845e-06 5.37107e-07)
(0.00135684 -1.4167e-06 3.44824e-07)
(0.0013542 -7.2123e-07 3.68892e-07)
(0.0013515 -3.87952e-07 3.90485e-07)
(0.00134899 -3.4757e-07 2.92974e-07)
(0.00134629 -1.18338e-07 3.49801e-07)
(0.00134345 7.63292e-08 1.13115e-07)
(0.0013409 -7.5201e-08 2.74459e-07)
(0.00133844 -2.06648e-08 2.91593e-07)
(0.00133591 1.56798e-07 3.2528e-07)
(0.00133355 3.39173e-07 3.28333e-07)
(0.00133107 1.287e-07 2.89204e-07)
(0.00132886 -4.72399e-08 3.35677e-07)
(0.00132565 8.59457e-09 4.01054e-07)
(0.00132259 -5.79602e-07 8.21635e-07)
(0.00132031 -1.33045e-06 2.49865e-07)
(0.00131715 -1.09294e-06 9.36309e-08)
(0.00131498 -8.25189e-07 3.73015e-07)
(0.00131344 -3.88307e-07 3.63582e-07)
(0.00131115 9.89588e-08 3.68912e-07)
(0.00130813 2.85662e-07 3.28615e-07)
(0.00130519 1.13786e-07 3.13814e-07)
(0.00130262 2.32422e-07 2.88462e-07)
(0.00130029 6.42099e-07 2.31231e-07)
(0.00129843 5.98667e-07 5.30684e-07)
(0.00129622 6.05881e-08 2.89117e-07)
(0.00129357 -9.68929e-09 1.98732e-07)
(0.00129159 -4.8715e-07 3.93161e-07)
(0.00128894 -3.55963e-07 6.93672e-07)
(0.00128626 -2.40325e-07 3.2897e-07)
(0.00128383 -1.96102e-07 2.31792e-07)
(0.00128147 -3.38848e-07 2.88293e-07)
(0.0012795 -7.08574e-07 3.08094e-07)
(0.00127663 -4.75238e-07 2.1344e-07)
(0.00127362 -3.838e-07 3.58895e-07)
(-0.00747131 -0.013348 -0.00800177)
(0.00667963 -0.01394 -0.00318881)
(-0.00977504 0.0178927 -0.066914)
(0.0309549 0.0362264 0.0202578)
(-0.000391611 0.00184592 0.0020402)
(0.00178466 -0.00530017 -0.000734786)
(0.00120338 0.000134717 5.48494e-05)
(0.0014918 -7.6821e-05 3.78909e-07)
(0.00142458 -6.33395e-06 3.82393e-07)
(0.0014026 -1.89749e-05 4.58123e-07)
(0.0013899 -1.14143e-05 3.47478e-07)
(0.0013803 -8.10618e-06 3.44329e-07)
(0.00137372 -5.36337e-06 3.44301e-07)
(0.00136851 -3.67429e-06 3.4076e-07)
(0.00136443 -2.47215e-06 3.41249e-07)
(0.00136092 -1.89895e-06 3.25388e-07)
(0.00135795 -9.2526e-07 3.32663e-07)
(0.00135501 -5.97266e-07 3.821e-07)
(0.00135184 -6.94116e-08 3.12171e-07)
(0.00134891 -1.99771e-07 3.07749e-07)
(0.00134629 -1.07715e-07 3.61102e-07)
(0.00134349 -2.23855e-08 3.66431e-07)
(0.00134089 5.06842e-07 2.53064e-07)
(0.00133874 3.17732e-07 2.79243e-07)
(0.00133626 7.31964e-08 2.51069e-07)
(0.00133331 -7.99836e-08 3.57462e-07)
(0.00133057 -3.41523e-07 3.00574e-07)
(0.00132814 -5.57521e-07 3.32415e-07)
(0.00132527 -1.54529e-06 4.20469e-07)
(0.00132201 -9.96372e-07 1.50743e-07)
(0.00131996 -1.0979e-06 3.81473e-07)
(0.00131828 -5.68186e-07 2.93355e-07)
(0.00131594 5.73201e-07 6.1243e-07)
(0.00131384 8.52868e-07 7.53408e-07)
(0.00131104 1.31975e-07 3.17662e-07)
(0.00130803 -2.86572e-08 2.53375e-07)
(0.00130573 1.61366e-07 3.49091e-07)
(0.00130343 3.37221e-07 3.76379e-07)
(0.00130068 6.58131e-07 3.1733e-07)
(0.00129784 8.41038e-07 3.53917e-07)
(0.00129549 2.22427e-07 3.37852e-07)
(0.00129305 -2.49302e-07 3.59818e-07)
(0.00129063 -4.59024e-07 4.21456e-07)
(0.0012888 -6.74822e-07 2.78677e-07)
(0.00128651 -2.42984e-07 3.57656e-07)
(0.00128397 -2.7345e-07 3.4434e-07)
(0.00128159 1.34444e-07 4.63627e-07)
(0.00127924 -1.90958e-07 3.2043e-07)
(0.00127658 -5.78799e-07 3.63201e-07)
(0.00127486 -4.12288e-07 2.19612e-07)
(-0.00665183 0.00686333 0.00552605)
(-0.00606782 0.00386567 0.00110711)
(0.00145581 -0.0116959 0.00169919)
(0.000658149 0.00834572 0.00331404)
(-0.0339679 -0.000488106 -0.00158939)
(-0.0096282 -6.07084e-05 0.000229155)
(0.0009866 0.000527376 -2.78259e-05)
(0.00139739 -8.30031e-05 3.16336e-07)
(0.00148798 5.40088e-06 -3.86304e-07)
(0.0013808 -8.11247e-06 3.42603e-07)
(0.00139225 -3.39252e-06 3.47817e-07)
(0.00138079 -2.62191e-06 3.46261e-07)
(0.00137529 -1.75245e-06 6.41518e-07)
(0.00136992 -1.14996e-06 3.447e-07)
(0.00136525 -7.80276e-07 3.41994e-07)
(0.00136177 -5.64611e-07 3.4125e-07)
(0.00135847 -5.24655e-07 1.77226e-07)
(0.00135527 -6.12811e-07 2.47338e-07)
(0.001352 -7.34048e-07 3.87917e-07)
(0.00134895 -3.74475e-07 3.27411e-07)
(0.00134651 -2.51494e-07 2.53226e-07)
(0.00134422 -1.14705e-07 3.31686e-07)
(0.00134132 1.95239e-08 4.29793e-07)
(0.0013379 1.10416e-07 -6.62741e-08)
(0.00133541 2.61417e-08 3.3951e-07)
(0.00133303 -7.02515e-08 3.09887e-07)
(0.00133047 -6.48945e-08 3.41715e-07)
(0.00132736 -9.56984e-08 3.30747e-07)
(0.00132511 -1.1956e-07 1.52679e-07)
(0.00132316 6.6385e-07 2.92701e-07)
(0.00132086 1.33821e-06 3.41074e-07)
(0.00131924 1.23778e-06 3.2105e-07)
(0.00131675 8.34591e-07 8.15089e-07)
(0.00131288 5.90591e-07 4.70136e-07)
(0.00131005 4.47979e-08 3.47821e-07)
(0.00130816 1.29942e-07 3.37895e-07)
(0.00130565 1.26044e-07 2.84192e-07)
(0.00130324 -9.11413e-09 3.49442e-07)
(0.00130091 1.3395e-08 3.32766e-07)
(0.00129788 -9.10776e-08 3.27848e-07)
(0.00129485 5.378e-08 3.44783e-07)
(0.00129272 -7.28852e-08 3.58585e-07)
(0.00129107 5.70762e-07 5.18805e-07)
(0.00128921 4.78202e-07 4.13641e-07)
(0.00128677 4.40082e-07 3.00315e-07)
(0.00128431 3.9527e-07 3.98488e-07)
(0.00128158 5.83388e-07 3.22386e-07)
(0.00127861 3.26813e-07 2.12189e-07)
(0.00127636 1.60746e-07 3.3934e-07)
(0.00127486 1.41621e-07 4.33847e-07)
(0.000127999 -0.00875722 -0.000369129)
(0.0124897 -0.00686798 0.00368133)
(0.000177268 0.00796612 -0.00675933)
(0.0049264 0.0100063 0.00980857)
(-0.00177698 0.0122828 -0.000555984)
(-0.0184068 -0.00795701 -0.00136698)
(-0.00140826 -0.00270511 -6.70331e-05)
(0.00147685 -0.000115357 5.22566e-06)
(0.00151462 -6.66865e-06 3.20165e-07)
(0.00139163 2.71365e-06 4.7989e-07)
(0.00139686 3.99498e-06 3.50159e-07)
(0.00138241 3.63796e-06 3.33461e-07)
(0.0013756 2.59418e-06 3.45235e-07)
(0.00136975 1.84095e-06 3.43134e-07)
(0.00136518 1.27555e-06 3.41612e-07)
(0.00136125 9.37368e-07 3.40432e-07)
(0.0013579 2.9045e-07 3.48536e-07)
(0.00135475 8.59339e-08 3.49325e-07)
(0.00135214 -4.74549e-07 3.13684e-07)
(0.00134952 -4.98416e-07 3.12624e-07)
(0.00134662 -3.2682e-07 1.79581e-07)
(0.00134383 -2.97113e-07 3.34642e-07)
(0.00134117 -5.72939e-07 2.79889e-07)
(0.00133874 -1.66798e-07 3.93111e-07)
(0.00133603 1.0485e-07 2.77543e-07)
(0.00133319 3.23483e-07 2.73714e-07)
(0.00133053 4.83544e-07 4.05281e-07)
(0.00132807 6.69624e-07 4.31037e-07)
(0.00132622 1.47758e-06 3.57518e-07)
(0.00132383 9.88302e-07 4.9798e-07)
(0.00132067 1.22505e-06 4.46768e-07)
(0.00131765 9.36581e-07 -8.43417e-09)
(0.00131512 1.71071e-07 2.86582e-07)
(0.00131285 -1.89667e-07 3.28175e-07)
(0.00131046 2.33816e-07 3.48998e-07)
(0.00130813 1.35871e-07 3.43904e-07)
(0.00130556 2.48227e-08 3.13435e-07)
(0.00130329 -5.514e-08 2.55524e-07)
(0.00130058 -5.23536e-07 2.23508e-07)
(0.00129789 -4.877e-07 1.68648e-07)
(0.00129551 -2.12278e-08 3.09244e-07)
(0.00129369 3.51985e-07 3.05095e-07)
(0.00129131 6.84732e-07 4.85581e-07)
(0.00128863 6.73585e-07 2.34246e-07)
(0.0012864 1.30358e-07 3.36603e-07)
(0.00128414 3.26836e-08 3.21462e-07)
(0.0012815 -1.29829e-07 3.93189e-07)
(0.00127871 1.23011e-07 3.27222e-07)
(0.00127635 4.40795e-07 3.1453e-07)
(0.00127449 4.00993e-07 2.31323e-07)
(-0.00217947 -0.000201563 -0.000489083)
(-0.010203 -0.00933086 0.000500457)
(-0.0202101 -0.00794596 0.00575911)
(0.0162086 -0.011565 -0.000392975)
(0.0163863 0.0242963 0.0120725)
(-0.00260286 -0.00882198 0.000950142)
(-0.000211164 -0.00109388 -2.94122e-05)
(0.0020204 -2.01094e-05 1.39845e-05)
(0.00151271 4.7023e-05 7.05061e-07)
(0.00139419 3.06635e-05 4.14264e-07)
(0.00139354 1.90605e-05 3.67759e-07)
(0.00137911 1.18838e-05 3.64268e-07)
(0.00137308 7.63717e-06 5.06811e-07)
(0.0013683 4.66679e-06 3.43447e-07)
(0.00136413 2.8481e-06 3.39957e-07)
(0.00136055 1.78586e-06 3.26291e-07)
(0.00135741 1.19025e-06 3.39858e-07)
(0.00135432 6.30377e-07 3.31361e-07)
(0.00135128 7.41881e-07 5.21507e-07)
(0.00134914 6.34721e-07 1.25828e-07)
(0.00134676 2.5936e-07 3.67679e-07)
(0.00134391 2.65343e-07 3.3429e-07)
(0.00134148 2.31808e-07 3.05714e-07)
(0.00133874 1.96411e-07 3.7712e-07)
(0.00133603 1.23423e-07 3.80283e-07)
(0.00133351 7.66514e-08 3.71281e-07)
(0.0013309 3.08503e-07 3.86752e-07)
(0.0013286 4.38902e-07 3.24538e-07)
(0.00132549 5.71051e-07 2.70925e-07)
(0.00132283 4.40803e-07 6.13264e-07)
(0.00132078 1.62374e-07 3.47808e-07)
(0.00131791 -1.52272e-07 3.15776e-07)
(0.00131534 2.33608e-07 4.94338e-07)
(0.00131296 1.20018e-07 3.31419e-07)
(0.00131045 2.09737e-07 3.25391e-07)
(0.0013079 -3.0467e-08 3.21175e-07)
(0.00130541 -1.0441e-07 1.37787e-07)
(0.00130256 -8.54934e-08 3.25628e-07)
(0.00130038 -1.56944e-07 4.38145e-07)
(0.00129851 7.9209e-08 3.07233e-07)
(0.0012959 2.60724e-07 3.47964e-07)
(0.0012936 8.52061e-07 4.64341e-07)
(0.00129146 1.75456e-07 1.72386e-07)
(0.00128851 1.78905e-07 3.11615e-07)
(0.00128597 -2.10308e-07 3.32839e-07)
(0.00128398 -3.75484e-07 3.19773e-07)
(0.00128169 -8.48728e-07 1.14137e-07)
(0.00127933 -7.17763e-07 1.86295e-07)
(0.0012767 -3.68509e-07 3.25728e-07)
(0.00127381 1.81911e-07 4.33099e-07)
(0.0107952 -0.0140156 0.000776798)
(0.0199124 0.023211 -0.00125225)
(-0.0602599 -0.00989653 -0.00197362)
(-0.00337867 0.00194732 0.00158358)
(-0.00186907 0.00808493 -0.00274502)
(0.0142966 -0.00521449 -0.00293584)
(0.000781153 0.00182906 -7.75485e-05)
(0.00114719 0.000217441 4.6814e-05)
(0.0014449 8.70025e-05 6.20176e-07)
(0.00135773 4.73883e-05 2.96175e-07)
(0.00137342 2.76899e-05 3.01903e-07)
(0.00136815 1.62125e-05 3.84008e-07)
(0.00136659 9.91801e-06 4.07341e-07)
(0.00136377 5.93904e-06 3.41592e-07)
(0.00136158 3.65788e-06 4.29829e-07)
(0.00135918 2.16137e-06 4.3687e-07)
(0.00135646 1.35689e-06 3.40356e-07)
(0.00135419 9.88812e-07 3.76828e-07)
(0.00135214 6.78499e-07 3.12031e-07)
(0.00134892 9.29114e-07 6.96632e-07)
(0.00134616 6.9349e-07 1.60025e-08)