/*--------------------------------*- C++ -*----------------------------------*\
| =========                 |                                                 |
| \\      /  F ield         | OpenFOAM: The Open Source CFD Toolbox           |
|  \\    /   O peration     | Version:  5.0                                   |
|   \\  /    A nd           | Web:      www.OpenFOAM.org                      |
|    \\/     M anipulation  |                                                 |
\*---------------------------------------------------------------------------*/
FoamFile
{
    version     2.0;
    format      ascii;
    class       surfaceVectorField;
    location    "3.2";
    object      Uf;
}
// * * * * * * * * * * * * * * * * * * * * * * * * * * * * * * * * * * * * * //

dimensions      [0 1 -1 0 0 0 0];

internalField   nonuniform List<vector> 
23929
(
(0.000838785 0.00593764 -0.000225284)
(-0.00836449 0.00515379 0.000535558)
(-0.00390434 0.00681459 4.65074e-05)
(-0.0199684 -0.00200101 -0.000238789)
(-0.0240575 -0.019952 0.00035839)
(-0.0156035 -0.000475318 0.000323064)
(-0.0251981 -0.000677093 -1.74006e-06)
(-0.0152547 -0.00735283 -0.0039651)
(0.00576446 0.0335368 -0.00357635)
(-0.038315 -0.00390319 -0.00963393)
(0.0397202 -0.00419476 -0.00353364)
(-0.0201596 -0.00893658 0.00364175)
(-0.0178843 -0.00741843 -0.00276081)
(-0.0169081 -0.0144795 0.000126874)
(-0.012668 -0.0147372 -0.000145172)
(-0.00825561 0.00174342 0.00107388)
(-0.0191664 -0.000463935 -0.000204709)
(-0.0172044 0.00257527 0.000310309)
(-0.0157541 0.00102322 0.000694651)
(0.00193578 0.00472589 0.000103485)
(0.00127775 0.00247684 -3.11174e-05)
(0.00281992 0.00533496 6.76638e-05)
(0.00362001 0.00520903 -8.93184e-05)
(0.000665856 0.000118729 1.5875e-05)
(0.000383375 3.43601e-05 1.94661e-05)
(0.000498819 8.22764e-05 3.61546e-05)
(0.000257768 4.15312e-05 9.28704e-06)
(0.000838448 4.66199e-05 -9.29861e-07)
(0.000845403 4.11181e-05 -2.12644e-06)
(0.00115737 6.8533e-05 -1.22314e-06)
(0.000595853 6.09357e-05 -4.61076e-06)
(0.000583655 4.12046e-05 -4.62903e-06)
(0.000996839 9.11677e-05 -4.8305e-06)
(0.000978892 4.95984e-05 -4.56764e-06)
(0.000830652 2.61443e-05 -6.13742e-09)
(0.000822218 3.64983e-05 -1.04592e-07)
(0.00110443 3.88831e-05 1.70074e-07)
(0.000826595 1.44829e-05 1.05225e-07)
(0.000823264 1.9411e-05 5.77408e-08)
(0.00110569 2.09682e-05 2.09088e-07)
(0.000821326 8.16438e-06 9.00438e-08)
(0.000820256 1.21162e-05 7.57216e-08)
(0.0010984 1.1765e-05 1.84425e-07)
(0.000817718 4.64141e-06 3.83808e-08)
(0.000817115 7.31366e-06 6.12762e-08)
(0.00109266 6.45731e-06 1.73509e-07)
(0.000815008 2.90246e-06 3.98944e-08)
(0.000814781 4.4933e-06 2.15047e-08)
(0.0010889 3.75207e-06 1.82702e-07)
(0.00081151 1.90391e-06 4.95566e-08)
(0.000812255 2.43449e-06 6.2825e-08)
(0.00108486 2.62415e-06 1.57756e-07)
(0.000809133 1.17241e-06 1.4144e-08)
(0.000809898 1.60875e-06 3.47559e-08)
(0.00108096 1.58088e-06 1.86353e-07)
(0.000807432 7.2212e-07 2.96633e-08)
(0.000807948 6.86511e-07 4.63467e-08)
(0.00107834 9.97821e-07 1.985e-07)
(0.000805792 4.96819e-07 5.9276e-08)
(0.000806209 6.52805e-07 5.02291e-08)
(0.00107617 5.77479e-07 1.77846e-07)
(0.00080369 3.29266e-07 6.27596e-08)
(0.000804547 2.04069e-07 6.45886e-08)
(0.00107373 5.28581e-07 1.61089e-07)
(0.000801626 8.73781e-08 1.43497e-07)
(0.000802681 7.70343e-07 7.82167e-08)
(0.00107093 2.29214e-07 1.8714e-07)
(0.000800269 -7.67655e-08 1.3938e-07)
(0.000801014 1.13461e-07 1.25835e-07)
(0.00106871 -4.6913e-08 2.4998e-07)
(0.000799054 -7.06723e-08 5.79229e-08)
(0.000799616 1.96859e-07 7.42718e-08)
(0.00106703 -1.38833e-07 1.78679e-07)
(0.000797406 -4.77763e-08 5.51118e-08)
(0.000798101 1.60313e-07 5.87568e-08)
(0.00106506 2.90797e-08 1.54695e-07)
(0.000795682 -9.04137e-08 4.49015e-08)
(0.000796455 1.94675e-07 1.32711e-07)
(0.0010628 -6.06427e-08 1.80689e-07)
(0.000794275 -4.71794e-08 2.25763e-08)
(0.00079504 -2.82571e-07 1.34822e-07)
(0.00106077 -9.23981e-08 1.80167e-07)
(0.00079294 3.83772e-08 -3.34139e-09)
(0.000793651 1.16493e-07 2.7848e-08)
(0.00105897 5.46523e-08 1.56563e-07)
(0.000791255 6.63426e-08 1.84687e-08)
(0.000792061 2.41882e-08 2.39425e-08)
(0.00105696 1.50361e-07 1.24017e-07)
(0.000789711 4.13206e-08 4.62949e-08)
(0.000790474 9.46506e-08 3.8494e-08)
(0.00105479 1.05176e-07 1.71336e-07)
(0.000788248 8.90227e-08 3.2436e-08)
(0.000789073 -4.9737e-08 4.8725e-08)
(0.00105294 2.77799e-08 1.77349e-07)
(0.000786723 -1.05676e-10 3.81925e-08)
(0.000787434 -1.96623e-07 4.24469e-08)
(0.00105083 1.8655e-07 1.37963e-07)
(0.000785208 -3.30018e-07 7.43153e-08)
(0.000785714 1.51292e-07 6.39412e-08)
(0.00104871 -2.54383e-07 2.02647e-07)
(0.000783505 -5.32922e-07 5.44142e-08)
(0.000784285 -5.0944e-07 3.42344e-09)
(0.0010467 -7.33742e-07 3.95978e-07)
(0.000782266 -4.98638e-07 4.92321e-08)
(0.000782848 -5.53959e-07 2.27656e-08)
(0.00104457 -7.71714e-07 3.11059e-07)
(0.000780669 -3.16949e-07 5.88246e-08)
(0.000781531 -2.37098e-07 9.79363e-08)
(0.00104273 -5.81727e-07 1.82649e-07)
(0.000779485 -1.06375e-07 5.47625e-08)
(0.000780306 8.34546e-09 7.21099e-08)
(0.00104106 -2.51801e-07 1.58841e-07)
(0.000778006 4.32185e-08 7.114e-08)
(0.000778863 -3.4668e-08 5.63999e-08)
(0.00103931 3.45933e-09 1.74458e-07)
(0.000776363 1.04175e-07 5.21653e-08)
(0.000777258 3.58804e-08 5.63221e-08)
(0.00103714 1.69497e-07 1.5428e-07)
(0.00077472 1.63268e-07 1.65067e-08)
(0.000775763 2.7147e-07 3.44265e-08)
(0.0010349 1.52405e-07 1.78699e-07)
(0.0007732 3.6981e-07 4.47758e-08)
(0.000774319 4.15419e-07 2.65786e-09)
(0.0010327 2.99961e-07 1.47106e-07)
(0.000772752 3.38994e-07 6.53006e-08)
(0.0007729 -2.03493e-06 8.09564e-08)
(0.00103146 7.07287e-07 2.07894e-07)
(0.000770913 8.39778e-08 3.37168e-08)
(0.000771465 3.05245e-07 2.26175e-07)
(0.00103005 2.61781e-07 1.81266e-07)
(0.000769498 3.45422e-09 4.35608e-08)
(0.000770011 3.1857e-08 4.26638e-08)
(0.0010278 2.74814e-08 1.71674e-07)
(0.000768209 -2.07212e-07 6.43291e-09)
(0.000768539 -1.3926e-07 6.31126e-08)
(0.0010259 -3.03873e-09 1.78772e-07)
(0.000767019 -4.38407e-07 -2.35971e-08)
(0.000767271 1.74093e-06 2.06303e-08)
(0.00102451 -5.35951e-07 6.93601e-09)
(0.000764763 -3.87132e-07 2.0892e-08)
(0.00076596 2.37243e-06 6.05027e-08)
(0.00102209 -5.82392e-07 8.40003e-08)
(0.000763476 -2.10666e-07 -1.78264e-08)
(0.000764466 -3.28171e-07 4.74437e-08)
(0.00101969 -4.01147e-07 1.7441e-07)
(0.000762073 -2.73392e-08 -1.39268e-08)
(0.000763006 2.30683e-07 -7.93347e-09)
(0.00101795 -1.72332e-07 1.50134e-07)
(0.000761262 -2.24808e-08 4.50476e-08)
(0.000761665 -7.53629e-07 5.06373e-08)
(0.00101638 4.90458e-08 1.6142e-07)
(0.000759689 -2.40681e-07 4.24625e-08)
(0.000760353 1.43457e-07 4.50307e-08)
(0.00101498 -1.7163e-07 1.76494e-07)
(0.000757989 -3.5069e-07 2.40898e-08)
(0.000758792 -2.97945e-07 -1.42279e-08)
(0.00101264 -4.9505e-07 2.07859e-07)
(0.000757482 8.65288e-07 5.65634e-08)
(0.00101047 -4.22556e-07 1.11224e-07)
(-0.0272334 0.00500326 -0.00230613)
(-0.0013516 -0.00769212 -0.00207113)
(-0.0114241 -0.00644306 -0.0181422)
(-0.0114446 0.00443224 -0.00101467)
(-0.0250776 -0.00314752 -0.00440808)
(-0.0101755 0.0175039 -0.00211197)
(0.0100948 -4.35107e-05 0.0459348)
(-0.00823006 -0.00808512 -0.00351257)
(0.0056051 0.00715305 -0.0116767)
(-0.0112127 0.00628186 -0.000497258)
(-0.0172095 0.0256935 -0.00218137)
(-0.00778178 0.00444262 0.000661815)
(-0.00698432 0.0250039 -0.00455778)
(0.00579301 0.00495855 -0.000369986)
(-0.0126635 0.0117815 -0.000547136)
(-0.0195526 0.00206361 -0.0035086)
(-0.00852207 0.000564075 -0.00145895)
(-0.0645894 -0.00458487 -0.00828817)
(-0.00455534 -0.0370615 -0.00556985)
(0.0562789 0.0201764 -0.00278228)
(0.0219172 0.0409504 -0.00803019)
(0.00503793 -0.0130056 -0.0153348)
(0.0213307 0.00100205 0.00271654)
(-0.0304167 0.0159759 0.00290779)
(-0.071918 0.00481531 0.0132794)
(-0.0437394 -0.00763558 0.00257828)
(-0.118214 -0.0259686 -0.00335702)
(-0.000298002 0.00494163 7.27311e-05)
(-0.00200929 0.000927118 0.000320954)
(-0.00757547 0.00702128 0.000443677)
(-0.00736154 0.00335968 0.00158587)
(0.0185456 0.00710523 0.00205737)
(0.00125603 0.00335326 -0.0001712)
(-0.00167092 0.00206487 -0.000101322)
(0.000646538 0.00339098 -2.91869e-05)
(4.43388e-05 0.00239007 -9.02097e-06)
(0.00198973 0.00476467 -0.000130078)
(0.00110787 0.000143265 1.14148e-05)
(0.00042971 -5.11004e-05 3.74994e-05)
(0.000393266 -8.74042e-05 3.96061e-05)
(0.000503411 -3.07203e-05 7.09122e-05)
(0.000295975 -3.60683e-05 1.95382e-05)
(0.000819216 3.33509e-05 -1.30183e-06)
(0.000548812 5.79366e-06 -1.44745e-06)
(0.0011045 2.49005e-05 -1.35543e-06)
(0.000562687 3.37236e-05 -5.21302e-06)
(0.000560609 -1.54637e-06 -2.67918e-06)
(0.000951952 5.43817e-05 -5.05204e-06)
(0.00097337 -1.9923e-05 1.49258e-06)
(0.000539431 -9.22977e-06 -4.09881e-06)
(0.000925952 -8.43909e-06 -6.16163e-07)
(0.000901641 -2.5697e-05 -4.95935e-06)
(0.00081695 3.06415e-05 -4.0767e-08)
(0.00082858 3.85771e-05 -9.19311e-07)
(0.00109122 5.15378e-05 9.69529e-08)
(0.000817459 1.57908e-05 2.82311e-08)
(0.000804724 1.68844e-05 -2.0252e-07)
(0.00109145 2.19397e-05 1.74615e-07)
(0.000815804 1.01662e-05 4.69586e-08)
(0.000813204 1.22294e-05 1.18311e-07)
(0.00109035 1.48512e-05 1.79374e-07)
(0.000814121 6.14937e-06 4.4413e-08)
(0.000812081 7.45481e-06 4.46024e-08)
(0.00108761 8.82193e-06 1.79463e-07)
(0.000812224 3.64375e-06 4.44219e-08)
(0.000811643 5.15351e-06 6.8276e-08)
(0.00108516 5.39062e-06 1.62729e-07)
(0.000810373 2.13111e-06 4.80334e-08)
(0.000810361 2.79914e-06 5.06696e-08)
(0.00108253 2.95489e-06 1.79132e-07)
(0.00080873 1.33483e-06 6.69549e-08)
(0.000808901 1.71184e-06 5.08429e-08)
(0.00108023 1.86354e-06 1.79253e-07)
(0.000806605 8.82192e-07 6.69113e-08)
(0.000807381 1.55365e-06 7.10888e-08)
(0.00107767 1.12062e-06 1.68444e-07)
(0.00080504 5.59152e-07 5.55371e-08)
(0.000805805 7.28856e-07 3.67866e-08)
(0.00107523 8.49719e-07 1.74898e-07)
(0.00080356 2.90203e-07 8.00413e-08)
(0.00080421 -2.11286e-07 7.25345e-08)
(0.00107325 4.0037e-07 2.01552e-07)
(0.000801959 1.9759e-07 6.05396e-08)
(0.000802565 -5.47917e-07 9.35865e-08)
(0.00107111 2.49252e-07 2.74397e-07)
(0.000800294 2.08228e-07 6.07435e-08)
(0.000801027 2.64651e-07 3.51205e-08)
(0.00106892 2.07283e-07 1.78688e-07)
(0.000798754 1.6722e-07 7.51107e-08)
(0.000799565 4.69672e-08 6.09419e-08)
(0.00106686 2.82407e-07 1.88981e-07)
(0.000797176 1.56427e-07 1.36333e-07)
(0.000798086 4.54998e-08 4.96255e-08)
(0.00106476 1.29032e-07 1.89597e-07)
(0.00079571 2.15277e-07 2.22631e-07)
(0.000796527 -4.65923e-07 1.41712e-07)
(0.00106265 3.12104e-07 2.17645e-07)
(0.000794456 1.22628e-07 1.40128e-07)
(0.000794923 -5.33166e-07 1.45004e-07)
(0.00106096 3.22937e-07 1.70876e-07)
(0.000792809 -5.33547e-08 5.51332e-08)
(0.000793431 2.35565e-08 5.18432e-08)
(0.00105906 6.79975e-08 1.94795e-07)
(0.000791269 -1.61722e-07 4.39632e-08)
(0.000791926 -2.6982e-07 4.10549e-08)
(0.00105682 -1.40948e-07 1.99796e-07)
(0.000789782 -2.03517e-07 4.09208e-08)
(0.000790422 7.38779e-08 4.43321e-08)
(0.00105479 -2.32642e-07 1.76202e-07)
(0.000788348 -3.71972e-07 5.87379e-08)
(0.000788864 -1.91087e-07 5.11687e-08)
(0.00105294 -2.987e-07 1.80338e-07)
(0.000786369 -4.87932e-07 6.81888e-08)
(0.000787291 -7.51316e-07 3.26878e-08)
(0.00105065 -7.71488e-07 2.57423e-07)
(0.000784812 -3.65627e-07 -6.93163e-09)
(0.00078587 -3.87773e-07 3.64366e-08)
(0.00104814 -6.25372e-07 2.19234e-07)
(0.000783539 -2.06284e-07 -2.82313e-08)
(0.000784487 1.053e-07 7.58165e-08)
(0.00104643 -4.19624e-07 1.1286e-07)
(0.000782156 8.0935e-08 7.14462e-08)
(0.000783207 3.60831e-07 3.78212e-08)
(0.00104473 -2.0191e-07 1.01379e-07)
(0.000781149 2.98074e-07 1.1123e-07)
(0.000781802 -2.1169e-06 5.90643e-08)
(0.00104306 4.19093e-07 2.66507e-07)
(0.000779723 2.15269e-07 7.37522e-08)
(0.000780201 -1.63902e-06 5.9396e-08)
(0.00104155 4.55491e-07 2.87744e-07)
(0.000778094 9.74023e-08 4.1582e-08)
(0.000778715 1.7885e-07 6.61674e-08)
(0.00103945 1.76751e-07 1.73588e-07)
(0.000776639 1.27429e-07 3.859e-08)
(0.000777295 -3.35601e-08 4.32693e-08)
(0.00103728 8.70003e-08 1.78579e-07)
(0.000775388 2.70993e-07 2.05875e-08)
(0.000775942 2.18874e-07 5.02804e-08)
(0.0010355 2.43601e-07 1.59631e-07)
(0.000773972 4.84205e-07 3.88142e-08)
(0.000774584 1.19448e-07 2.61685e-08)
(0.00103386 4.74993e-07 1.92193e-07)
(0.000771683 4.50599e-07 2.41786e-07)
(0.000772856 -6.10501e-07 5.00692e-08)
(0.00103132 8.16313e-07 1.47384e-07)
(0.000770494 2.03394e-07 2.35179e-07)
(0.000771155 1.95112e-07 2.56028e-07)
(0.0010289 4.31486e-07 1.58927e-07)
(0.000769108 4.5461e-08 6.22093e-08)
(0.000769813 -3.05061e-08 6.46709e-08)
(0.00102728 1.60972e-07 1.7324e-07)
(0.000767502 -1.72311e-07 7.7323e-08)
(0.000768267 1.08599e-07 6.34772e-08)
(0.00102525 -4.7911e-08 1.70536e-07)
(0.000766282 -4.75586e-07 1.04718e-07)
(0.000766893 3.4489e-07 1.1856e-07)
(0.00102331 -4.12361e-07 2.5441e-07)
(0.000765662 -3.71634e-07 8.70585e-08)
(0.000766091 2.37278e-07 1.17532e-07)
(0.00102225 -8.31751e-07 2.53846e-07)
(0.000763999 -5.39611e-08 5.73536e-08)
(0.000764865 7.49517e-09 -1.60649e-09)
(0.00102066 -1.68624e-07 1.69053e-07)
(0.000762499 1.81351e-07 5.66127e-08)
(0.0007633 1.11666e-07 5.56213e-08)
(0.00101854 -3.86945e-08 1.87438e-07)
(0.000760866 2.17083e-07 5.06221e-08)
(0.00076171 -1.20392e-06 7.37197e-08)
(0.00101651 4.50933e-07 2.23831e-07)
(0.000759416 -6.65326e-09 -1.16416e-08)
(0.000760073 2.73947e-07 6.43444e-08)
(0.00101441 7.99596e-08 1.6485e-07)
(0.000758196 -1.28354e-07 1.82242e-08)
(0.000758642 1.06488e-07 -7.0679e-09)
(0.00101256 -1.50384e-07 1.24103e-07)
(0.000757641 -1.19516e-07 1.02453e-07)
(0.00101119 -2.38432e-07 2.28198e-07)
(0.00191734 0.0012999 -0.000274506)
(0.00585631 -0.0059021 -0.000117553)
(-0.00269053 0.002402 0.00585767)
(0.0113243 -0.00214414 -0.00557548)
(-0.000678642 0.000311995 -0.00423686)
(0.00585161 -0.00588178 0.00311656)
(0.006252 0.00113014 0.000341858)
(0.000542197 0.00122311 1.98466e-05)
(-0.00430075 0.00498068 0.000485077)
(0.00276145 0.0107886 -0.0031733)
(0.00138207 0.00771695 0.00492809)
(-0.000983083 0.0135957 -0.00167525)
(-0.00454941 0.00437416 0.000183715)
(0.00475398 -0.00140181 -0.00010642)
(-0.00379955 0.0206879 -0.000913827)
(0.00823283 -0.000137409 0.000468317)
(0.00328869 -0.00148199 -9.81333e-05)
(0.00559322 -0.00291752 0.000140298)
(0.000649345 -0.000821153 -8.6726e-05)
(-0.0121324 0.00145053 0.00055288)
(0.00161394 -6.37394e-05 0.000365269)
(0.00201914 -0.00533053 0.000329034)
(0.00302959 -0.00459202 0.000842189)
(-0.000399583 -0.0101638 0.000119261)
(0.00681551 -0.0121339 -0.000510881)
(0.00790307 -0.00870628 0.00154782)
(0.00434431 -0.00470805 0.000787709)
(0.0121162 -0.00619368 0.000347595)
(-0.000330412 0.00805559 -6.65839e-05)
(0.013165 0.00493009 0.000246482)
(0.00558417 0.00493669 0.000786216)
(-0.000787157 0.00431527 -0.000416219)
(0.00572434 0.00111028 -0.000277164)
(-0.00191359 0.00216777 -0.000121041)
(0.000762016 0.00443913 0.000174521)
(-0.000318942 0.00351529 -1.77074e-05)
(-0.000273537 0.00205408 0.000548173)
(-0.00254766 0.00843723 9.85007e-05)
(0.000559043 0.000434421 2.54675e-05)
(0.00117458 0.000388044 2.18052e-06)
(0.00112491 0.000303653 6.50349e-05)
(0.00134913 0.000461675 -5.0784e-05)
(0.00122914 0.000119864 2.45206e-05)
(0.000296493 -1.31262e-05 -2.88007e-06)
(0.000442591 -1.10624e-05 -3.0524e-06)
(0.000415728 -1.85923e-05 -4.57319e-07)
(0.000694282 -2.53109e-05 -8.19058e-07)
(0.000281605 -7.08121e-06 -1.49799e-06)
(0.000548042 -2.85372e-05 -3.74625e-06)
(0.000526407 -1.70752e-05 2.41828e-06)
(0.000797427 1.81912e-05 -1.0813e-06)
(0.000847657 6.92219e-06 -1.63882e-06)
(0.00112655 3.03726e-05 -9.15171e-07)
(0.000561791 1.77641e-06 -3.84452e-06)
(0.000578989 2.77199e-06 -4.67317e-06)
(0.000930001 -1.34198e-05 -4.70525e-06)
(0.00097169 -8.38923e-06 -5.80681e-06)
(0.000805894 1.03595e-05 -1.12545e-07)
(0.00079482 5.66167e-06 -2.86022e-07)
(0.00105994 1.32443e-05 8.80887e-08)
(0.000809057 7.65122e-06 1.15979e-07)
(0.000809811 5.93939e-06 1.73466e-07)
(0.00108197 1.09735e-05 2.05768e-07)
(0.000810051 4.9562e-06 6.84577e-08)
(0.000808706 4.5496e-06 -7.32257e-08)
(0.00108081 7.09748e-06 1.59801e-07)
(0.000809929 3.17167e-06 7.45294e-08)
(0.000809408 3.07751e-06 7.48883e-08)
(0.00108156 4.57953e-06 1.98193e-07)
(0.000808933 1.9967e-06 5.3479e-08)
(0.00080889 2.06514e-06 5.12025e-08)
(0.00108045 2.89051e-06 1.81015e-07)
(0.000807633 1.1761e-06 5.49702e-08)
(0.000807874 1.37979e-06 4.94325e-08)
(0.00107867 1.80335e-06 1.79984e-07)
(0.00080657 6.42015e-07 4.09753e-08)
(0.000806714 8.76686e-07 5.20654e-08)
(0.00107708 9.39791e-07 1.83614e-07)
(0.000805021 3.47416e-07 5.37725e-08)
(0.000805437 8.19938e-07 3.77134e-08)
(0.00107527 5.24662e-07 1.72813e-07)
(0.000803169 1.0333e-07 8.60729e-08)
(0.000803905 6.02904e-07 8.17405e-08)
(0.00107298 2.21911e-07 1.4909e-07)
(0.000801628 7.5521e-09 6.81861e-08)
(0.000802447 8.45958e-07 6.29789e-08)
(0.00107069 -9.51294e-08 8.17286e-08)
(0.000800306 2.07308e-08 3.53105e-08)
(0.000801044 -9.36955e-08 3.4658e-08)
(0.00106875 3.25364e-09 1.83792e-07)
(0.000798879 2.18952e-08 3.54604e-08)
(0.000799566 2.87576e-07 4.12061e-08)
(0.00106693 -1.87124e-08 1.51337e-07)
(0.000797487 2.17698e-08 5.49758e-08)
(0.000798086 -1.33193e-07 4.88529e-08)
(0.0010651 3.05628e-08 1.77273e-07)
(0.000795732 8.59507e-08 6.4084e-08)
(0.000796608 9.81237e-07 3.6642e-08)
(0.00106304 9.40419e-09 9.59268e-08)
(0.000793848 1.18255e-07 5.67489e-08)
(0.000794963 -7.23484e-08 6.41395e-08)
(0.00106046 2.22871e-07 1.76445e-07)
(0.00079256 5.56764e-08 3.77683e-08)
(0.000793352 -2.01199e-07 3.6578e-08)
(0.00105839 8.10465e-08 1.7301e-07)
(0.000791072 5.73991e-09 4.14227e-08)
(0.000791863 -1.76027e-07 2.80363e-08)
(0.00105659 5.17573e-08 1.68574e-07)
(0.000789548 -3.64072e-08 5.45777e-08)
(0.00079037 5.78254e-08 5.76504e-08)
(0.00105459 -2.35353e-08 1.79586e-07)
(0.000787831 -8.96415e-08 2.51244e-08)
(0.000788797 -4.20603e-08 5.25881e-08)
(0.00105228 -3.90925e-08 1.84986e-07)
(0.000786651 6.57437e-08 9.34434e-10)
(0.000787485 5.31472e-07 -5.98007e-09)
(0.00105042 -1.58034e-07 5.74106e-08)
(0.000785695 3.55442e-07 1.19172e-07)
(0.000786231 7.35248e-07 2.50134e-08)
(0.00104916 3.95329e-07 4.85718e-08)
(0.000784014 4.90703e-07 1.41881e-07)
(0.000784653 3.6998e-07 1.22816e-07)
(0.00104723 6.59584e-07 1.73287e-07)
(0.000782965 5.28472e-07 2.54327e-08)
(0.000783252 5.07246e-07 6.30981e-08)
(0.00104562 7.55139e-07 1.25951e-07)
(0.00078077 4.33831e-07 7.23062e-09)
(0.000781681 6.34894e-08 1.47251e-08)
(0.00104355 6.93909e-07 8.3587e-08)
(0.000779229 2.47262e-07 5.18091e-08)
(0.000779967 1.2518e-07 3.03148e-08)
(0.00104075 4.69116e-07 5.52938e-08)
(0.000777873 1.45726e-07 6.78618e-08)
(0.000778587 1.28538e-07 7.48971e-08)
(0.00103885 1.78286e-07 1.68193e-07)
(0.000776595 1.23443e-07 5.49575e-08)
(0.000777267 -6.86608e-08 4.57367e-08)
(0.00103723 1.70952e-07 1.60498e-07)
(0.000775159 4.609e-08 5.58689e-08)
(0.000775845 -6.79555e-09 4.87018e-08)
(0.00103538 1.32712e-07 1.88682e-07)
(0.000773644 -8.37812e-08 3.74161e-08)
(0.000774421 5.85464e-08 4.86915e-08)
(0.00103341 -7.55132e-09 1.84258e-07)
(0.000772058 -5.00293e-08 6.42478e-08)
(0.000772898 -1.76124e-07 2.10995e-08)
(0.0010314 -1.9614e-07 1.55361e-07)
(0.000770554 8.00361e-08 8.55796e-08)
(0.000771317 7.2961e-07 7.47184e-08)
(0.00102923 5.24915e-08 1.40859e-07)
(0.000769095 1.49645e-07 6.59392e-08)
(0.0007699 -8.46331e-09 5.95327e-08)
(0.0010272 1.26404e-07 1.73703e-07)
(0.00076746 3.61998e-07 1.04697e-07)
(0.000768532 2.91403e-07 5.95079e-08)
(0.00102519 2.48563e-07 1.77826e-07)
(0.000766525 5.54415e-07 1.31375e-07)
(0.000767132 -8.70512e-07 1.74473e-07)
(0.00102353 7.08528e-07 2.1559e-07)
(0.000765679 4.49148e-07 2.89035e-08)
(0.000765957 -1.513e-06 6.86774e-08)
(0.0010224 7.73538e-07 2.46387e-07)
(0.000764035 2.86075e-07 -3.35633e-09)
(0.000764659 5.50898e-08 -1.21813e-08)
(0.00102069 4.66675e-07 1.88245e-07)
(0.000762598 2.67009e-07 7.27227e-08)
(0.000763274 -2.21753e-09 4.66376e-08)
(0.00101872 3.75125e-07 1.81343e-07)
(0.000760789 3.42683e-07 8.74448e-08)
(0.000761803 -5.16911e-08 8.33161e-08)
(0.00101653 3.90888e-07 1.23086e-07)
(0.000759344 3.24924e-07 6.89398e-08)
(0.000760049 3.7176e-07 5.97732e-08)
(0.00101423 5.2998e-07 1.66897e-07)
(0.000757873 1.8989e-07 7.71274e-08)
(0.000758472 1.71572e-07 5.18435e-08)
(0.00101225 3.11317e-07 1.71805e-07)
(0.000757404 -1.07233e-06 1.2956e-07)
(0.00101095 1.77416e-07 2.03536e-07)
(0.00451715 -0.00626009 0.000176754)
(0.00728967 -0.00551811 -0.000274718)
(0.00361392 -0.00902129 -0.000332762)
(0.00295618 0.00532401 -3.44837e-05)
(5.68883e-05 -0.00457698 0.000259849)
(0.00740055 -0.00451117 0.00436665)
(0.00672907 -0.0109554 -0.00168517)
(-0.00574419 0.00163673 0.000812136)
(0.00132391 0.00219607 -0.00142139)
(0.00368864 0.00768085 -0.000347326)
(0.00309389 0.00678945 8.78433e-05)
(0.00282224 0.00941081 -0.00671452)
(-0.0164958 2.72106e-05 0.00316618)
(-0.00150142 0.0213828 -0.0056466)
(-0.00169064 0.024975 0.00794942)
(0.00316409 0.000663393 -0.000134392)
(-0.00015956 0.0020702 -0.000243328)
(0.00160465 0.00245895 -0.000122982)
(0.00098197 0.00711052 -0.000386425)
(0.00151701 -0.00239944 -0.000579315)
(-0.00672598 -0.00955104 -5.78512e-05)
(0.00391978 0.00780746 0.00668396)
(0.00386899 -0.00355675 0.000189702)
(-0.000758473 0.0227123 0.00014823)
(0.0124701 0.000867655 0.00121908)
(-0.00666687 0.00127988 -0.000356248)
(-0.00227957 -0.0119967 -0.00036025)
(-0.00769488 0.00303785 -0.00109989)
(-0.00208579 9.14091e-05 -0.00296855)
(0.0034033 0.0156299 0.0028874)
(-0.00895741 0.00528535 -0.00408668)
(0.00165054 0.00367808 -0.00120562)
(0.0103823 -5.64153e-05 -0.000342621)
(0.0034447 0.0173593 -0.00237415)
(-0.0225974 0.00226291 0.0011203)
(0.00235816 -0.00686689 0.000490574)
(0.00510725 -0.00311296 -0.000340926)
(0.0071222 -0.00294814 -0.000145423)
(0.00361543 0.0148565 -0.000565154)
(0.000361655 0.00291673 -0.000122779)
(5.67286e-05 -0.00277425 9.45478e-05)
(0.0031065 -0.00193219 0.000149172)
(-0.000160742 -0.00801837 9.18687e-05)
(-0.00269047 -0.00507257 0.000479554)
(-0.000276717 -0.000542137 -6.59341e-06)
(-0.000221644 -0.000220896 -1.12387e-05)
(-0.000442433 -0.000335639 -1.80147e-05)
(-0.000648592 -0.000886687 -4.94511e-05)
(0.000401317 -0.000340561 5.08295e-05)
(0.000350702 -6.63219e-05 1.68567e-05)
(0.000461734 -2.47062e-05 -2.17287e-06)
(0.000741265 -7.28738e-05 5.88371e-06)
(0.000366464 -9.83395e-05 2.44069e-05)
(0.000617342 -0.000114029 4.21985e-05)
(0.000656566 -0.000152086 5.9265e-05)
(0.00043679 -2.13803e-05 6.53812e-07)
(0.00034966 -3.66638e-05 2.8326e-06)
(0.000647788 -7.47533e-05 1.0442e-05)
(0.000569878 -9.14898e-05 -1.73669e-06)
(0.000304731 -4.92473e-05 -1.64853e-06)
(0.000806595 7.2107e-07 -8.43982e-07)
(0.000857193 3.58391e-06 -1.66974e-06)
(0.00114451 -3.57444e-06 -1.15031e-06)
(0.000579291 -4.68374e-06 -4.12891e-06)
(0.000598907 -7.12904e-06 -4.72028e-06)
(0.000960871 -1.12121e-05 -4.63929e-06)
(0.00101958 -1.52405e-05 -5.66705e-06)
(0.000807771 3.53691e-06 -1.60519e-10)
(0.00079825 3.96279e-06 -3.21967e-07)
(0.00106691 3.87089e-06 6.04566e-08)
(0.000808461 3.39492e-06 -1.56576e-08)
(0.000809642 2.86119e-06 1.36105e-07)
(0.00108266 4.47435e-06 1.97815e-07)
(0.000808679 2.58367e-06 -6.68432e-08)
(0.000807695 2.01557e-06 8.82939e-08)
(0.00107962 3.88684e-06 1.9997e-07)
(0.000808613 1.7658e-06 5.15691e-08)
(0.000808386 1.18682e-06 7.9842e-08)
(0.0010799 2.57013e-06 1.80558e-07)
(0.000808018 1.31881e-06 4.71565e-08)
(0.000808331 8.65376e-07 4.70352e-08)
(0.00107906 1.85994e-06 1.79331e-07)
(0.000806971 9.98785e-07 4.65268e-08)
(0.000807473 7.57755e-07 3.81776e-08)
(0.00107779 1.46369e-06 1.78889e-07)
(0.000805682 5.62112e-07 4.88082e-08)
(0.000806167 5.56792e-07 2.59064e-08)
(0.00107607 1.06159e-06 1.78937e-07)
(0.000804426 1.82177e-07 6.56672e-08)
(0.000804962 2.80176e-07 4.95811e-08)
(0.00107434 3.58368e-07 1.91129e-07)
(0.000803064 2.29833e-08 5.86525e-08)
(0.000803707 1.4584e-07 6.40419e-08)
(0.00107248 1.03465e-07 1.94266e-07)
(0.000801948 -6.65038e-08 2.94599e-08)
(0.000802335 1.89769e-07 5.69502e-08)
(0.00107084 -7.49189e-08 1.86101e-07)
(0.000800283 -9.64645e-08 4.05514e-08)
(0.000801008 1.95257e-07 4.67956e-08)
(0.00106902 -1.60299e-07 1.68147e-07)
(0.00079881 -1.04456e-07 5.45962e-08)
(0.000799557 1.1859e-08 6.13499e-08)
(0.00106689 -1.42743e-07 1.90839e-07)
(0.000797135 -1.62789e-07 3.05231e-08)
(0.000798014 3.05055e-08 3.38649e-08)
(0.00106479 -1.71336e-07 1.78006e-07)
(0.000795966 -1.85483e-07 3.66888e-08)
(0.00079658 1.24377e-08 3.73321e-08)
(0.00106289 -3.02919e-07 2.13372e-07)
(0.00079438 -6.00476e-08 4.39775e-08)
(0.000795121 4.95708e-08 7.79862e-08)
(0.00106105 -2.2252e-07 1.74487e-07)
(0.000792669 9.94371e-08 2.68488e-08)
(0.000793551 3.08373e-09 5.14027e-08)
(0.00105885 4.33078e-08 1.80379e-07)
(0.000791118 2.19663e-07 4.42547e-08)
(0.000792013 -5.75779e-08 4.72487e-08)
(0.00105669 2.03735e-07 1.72675e-07)
(0.000789701 3.54275e-07 5.56624e-08)
(0.000790536 2.48327e-08 6.31899e-08)
(0.00105468 3.80458e-07 1.71558e-07)
(0.000788332 5.83628e-07 2.15021e-08)
(0.000789081 5.78502e-07 5.72471e-08)
(0.00105277 5.93914e-07 1.21114e-07)
(0.00078712 6.40745e-07 1.80891e-08)
(0.000787553 8.06859e-07 1.08725e-07)
(0.00105119 1.05946e-06 1.3104e-07)
(0.000785234 4.27752e-07 2.86263e-08)
(0.000785961 8.70952e-08 2.75251e-08)
(0.00104916 7.64373e-07 2.55396e-07)
(0.000783813 2.91413e-07 4.4052e-08)
(0.00078448 3.13918e-07 3.50191e-08)
(0.00104687 4.99966e-07 1.72677e-07)
(0.000782138 8.52456e-08 5.24057e-08)
(0.000782992 7.535e-08 5.41939e-08)
(0.00104477 4.38061e-07 2.2236e-07)
(0.000780683 -6.64919e-08 3.78045e-08)
(0.00078149 6.2034e-07 4.95587e-08)
(0.0010427 -7.67768e-08 1.33105e-07)
(0.000779357 2.69492e-08 5.33889e-08)
(0.000780083 -6.57906e-09 4.73392e-08)
(0.0010409 -4.45428e-08 1.71169e-07)
(0.000777999 9.04409e-08 5.27811e-08)
(0.000778666 -2.05814e-08 5.2496e-08)
(0.00103907 1.285e-07 1.75665e-07)
(0.000776491 5.76175e-08 3.94801e-08)
(0.000777225 4.7653e-08 4.68279e-08)
(0.00103722 1.19056e-07 1.70289e-07)
(0.000775135 4.41419e-08 4.15245e-08)
(0.000775828 -5.64498e-08 2.9008e-08)
(0.00103528 2.53425e-08 1.68942e-07)
(0.000773685 -7.0799e-08 3.23835e-08)
(0.000774278 1.12036e-07 4.79066e-08)
(0.00103345 6.40188e-08 1.70269e-07)
(0.000772128 -2.38416e-07 3.15535e-08)
(0.00077269 -2.74887e-07 2.97705e-08)
(0.0010314 -3.02734e-07 1.90883e-07)
(0.000770629 -1.63713e-07 4.86761e-08)
(0.000771412 7.81391e-07 6.48524e-08)
(0.0010293 -3.83797e-07 1.75118e-07)
(0.000769443 -3.55585e-09 5.31014e-08)
(0.0007701 -2.76729e-07 5.23624e-08)
(0.00102752 -6.85783e-08 1.69966e-07)
(0.000768105 1.67914e-07 1.29248e-07)
(0.000768745 9.28421e-08 2.63513e-07)
(0.00102598 1.15175e-07 1.78616e-07)
(0.000766473 3.0605e-07 1.11808e-07)
(0.000767303 4.59031e-08 1.28721e-07)
(0.00102396 4.2085e-07 1.24475e-07)
(0.000765055 1.89994e-07 2.76174e-08)
(0.000765811 -1.20004e-06 -3.21035e-08)
(0.00102194 4.56263e-07 1.48672e-07)
(0.000763854 5.00668e-08 3.77947e-08)
(0.000764483 6.49442e-08 4.4427e-08)
(0.00102016 9.70918e-08 1.5077e-07)
(0.000762558 3.92132e-08 5.72198e-08)
(0.000763261 -1.03206e-08 4.50446e-08)
(0.00101844 6.77996e-08 1.6083e-07)
(0.000761091 1.5856e-07 5.56517e-08)
(0.000761952 9.37287e-07 4.27779e-08)
(0.00101669 2.65843e-08 1.03861e-07)
(0.000759106 2.18406e-07 4.26793e-08)
(0.000760124 1.11714e-06 2.75574e-08)
(0.0010143 3.46449e-07 1.6887e-07)
(0.000757842 2.01777e-07 1.04252e-07)
(0.000758448 -9.34109e-09 5.16295e-08)
(0.00101211 2.11531e-07 1.70886e-07)
(0.000757153 -1.33012e-06 1.06715e-07)
(0.00101058 3.34981e-07 1.95139e-07)
(0.00595168 -0.00376854 -0.000191801)
(-0.00808242 0.00270335 0.00136851)
(0.00300511 -0.000284527 -0.00091769)
(0.00202857 -0.0019941 -0.00169529)
(0.010467 0.00106897 0.00064746)
(0.00423887 0.00555992 -0.000780427)
(-0.00203335 -0.00246985 0.000382233)
(0.000108387 -0.00431533 0.000151061)
(-0.00610827 -0.00811312 -0.000110771)
(-0.00449754 0.00113846 -0.00107398)
(0.00473737 -0.0019884 0.000609727)
(0.00371491 -0.00951066 0.00184751)
(0.000372806 1.20234e-05 -0.00189491)
(-0.0012723 0.00161806 0.000569554)
(-0.00388127 0.00524386 -0.00127367)
(-0.0041338 -0.00652167 0.000232326)
(0.0139419 0.00685142 0.000223651)
(-0.013814 -0.0047714 0.00214416)
(0.000312338 0.00103061 0.000558016)
(-0.00751336 0.00544936 0.000203054)
(-0.00977355 0.00114675 0.00119143)
(0.000557273 0.0010313 -0.00305377)
(0.00366527 0.00968751 -0.000662926)
(0.00855823 0.0177891 0.00330592)
(-0.00416885 0.00463341 -6.72741e-05)
(-0.00178617 -0.00933373 -7.00059e-05)
(-0.00857002 0.00890468 -0.00045084)
(-0.0097641 -0.00332344 -0.000156615)
(-0.00606031 -0.00196103 -0.000164773)
(-0.00464768 -0.0130489 -3.69987e-05)
(0.00653187 -0.0138364 0.000338807)
(0.00875189 -0.0142869 4.99682e-05)
(0.00687304 -0.0103865 -0.000752636)
(-0.000394357 -0.00735186 -7.08438e-05)
(0.00141396 -0.0146315 -0.00160473)
(-3.11105e-05 -0.00502923 0.000285031)
(-0.00398985 -0.0193958 1.43384e-05)
(0.00163674 -0.0172108 -0.000570325)
(0.00336729 0.0041975 0.000275149)
(0.0106779 -0.0050916 0.000174139)
(0.00407139 -0.00217998 0.000211234)
(0.00660676 -0.0010056 0.00015328)
(0.007969 -0.00559139 0.000906507)
(0.0022049 -0.000865691 -3.52269e-05)
(0.00171563 -8.72492e-05 -9.70775e-05)
(0.0026598 -0.000263232 3.01657e-05)
(0.00210188 -0.00077236 1.23547e-05)
(0.00291109 -8.95272e-05 -7.60024e-05)
(0.00121759 -7.51714e-05 -9.58453e-05)
(0.00192361 -0.000270696 -0.000208471)
(0.00271585 -0.000125351 2.73245e-05)
(0.00214999 0.000145598 1.2224e-05)
(0.00150905 -0.000489168 -1.43992e-06)
(0.00208297 -0.000275815 1.76923e-05)
(0.00201682 0.000360807 0.000108224)
(0.00222328 1.49359e-05 2.17126e-05)
(0.001747 -5.42815e-05 0.000113016)
(0.000470935 -5.57304e-05 4.20173e-05)
(0.000383084 -4.00664e-05 1.09865e-05)
(0.000396901 7.16707e-06 1.2296e-05)
(0.000660968 -3.89697e-05 1.16809e-05)
(0.000295058 -1.79105e-05 1.50686e-06)
(0.00080975 9.17524e-06 -1.14817e-06)
(0.000846782 1.79405e-05 -1.83538e-06)
(0.00115238 1.81687e-05 -1.18138e-06)
(0.000617162 5.65011e-06 -5.00483e-06)
(0.000583171 2.23154e-05 -5.51206e-06)
(0.00105336 9.66175e-06 -5.83371e-06)
(0.000972756 5.00789e-05 -6.42118e-06)
(0.00080814 3.92183e-06 -1.85851e-07)
(0.000791858 5.52562e-06 -4.69407e-07)
(0.00106977 8.14218e-06 7.49883e-08)