/*--------------------------------*- C++ -*----------------------------------*\
| =========                 |                                                 |
| \\      /  F ield         | OpenFOAM: The Open Source CFD Toolbox           |
|  \\    /   O peration     | Version:  5.0                                   |
|   \\  /    A nd           | Web:      www.OpenFOAM.org                      |
|    \\/     M anipulation  |                                                 |
\*---------------------------------------------------------------------------*/
FoamFile
{
    version     2.0;
    format      ascii;
    class       surfaceVectorField;
    location    "3.2";
    object      Uf_0;
}
// * * * * * * * * * * * * * * * * * * * * * * * * * * * * * * * * * * * * * //

dimensions      [0 1 -1 0 0 0 0];

internalField   nonuniform List<vector> 
23929
(
(0.00359967 0.0074549 -0.000200442)
(-0.00567842 0.00366243 0.000516197)
(-0.00290536 0.00674157 -2.43535e-05)
(-0.017996 -0.000930906 -6.89582e-05)
(-0.0232915 -0.0223603 0.000562182)
(-0.0143192 -0.00294067 0.000349555)
(-0.0263057 -0.00162379 0.000592057)
(0.00423768 -0.00215754 -0.00640573)
(0.0124316 0.035638 -0.00391786)
(-0.0120163 -0.00114085 -0.00932714)
(0.0615681 -0.00485863 -0.00448873)
(-0.0249251 -0.00233271 0.00112323)
(-0.0148015 -0.00602046 -0.00472763)
(-0.00927389 -0.00575489 -0.000995298)
(-0.016771 -0.0098934 -0.000468074)
(-0.0074772 0.00020389 -2.78571e-05)
(-0.0209082 -0.000778013 -0.00051382)
(-0.0207967 0.00306541 -1.08685e-05)
(-0.0191003 -7.08837e-05 0.000824563)
(0.00209065 0.00377486 8.336e-05)
(0.00145694 0.00173757 -3.08156e-05)
(0.00315971 0.00473584 6.01471e-05)
(0.00407825 0.00446563 -0.000109662)
(0.000681999 -2.03126e-05 1.8594e-05)
(0.000404957 -5.08952e-05 1.98661e-05)
(0.000517364 -6.19464e-05 3.64304e-05)
(0.000264079 -3.5585e-05 9.46586e-06)
(0.000853732 -4.47454e-05 -9.90654e-07)
(0.000900687 -5.49447e-05 -2.1507e-06)
(0.0011843 -6.81376e-05 -1.415e-06)
(0.000614953 -5.49306e-05 -4.72234e-06)
(0.00063265 -5.78046e-05 -5.0348e-06)
(0.00101837 -9.14513e-05 -5.0603e-06)
(0.00105018 -0.000102054 -5.18239e-06)
(0.00083815 -2.74618e-05 -3.31692e-08)
(0.000851097 -2.34775e-05 -1.81452e-07)
(0.00111406 -4.02412e-05 1.6064e-07)
(0.000832359 -1.76146e-05 9.93142e-08)
(0.000841369 -1.84276e-05 5.86186e-08)
(0.00111142 -2.61899e-05 2.00056e-07)
(0.00082729 -1.11927e-05 7.92345e-08)
(0.000833512 -1.14968e-05 6.9043e-08)
(0.00110417 -1.65446e-05 1.8132e-07)
(0.000824185 -7.14489e-06 2.84506e-08)
(0.000828029 -7.43101e-06 4.89056e-08)
(0.00109942 -1.06618e-05 1.80218e-07)
(0.000821729 -4.50726e-06 2.29039e-08)
(0.000824398 -4.70358e-06 1.7897e-08)
(0.00109638 -6.73584e-06 1.83181e-07)
(0.000819582 -2.84675e-06 4.83516e-08)
(0.000821451 -3.09214e-06 4.615e-08)
(0.00109349 -4.20431e-06 1.76551e-07)
(0.000817598 -1.84635e-06 4.2122e-08)
(0.000819041 -2.05339e-06 5.05016e-08)
(0.0010908 -2.67737e-06 1.8675e-07)
(0.000815454 -1.2355e-06 4.32756e-08)
(0.000816887 6.42423e-07 4.6799e-08)
(0.00108817 -1.78978e-06 1.13165e-07)
(0.000813814 -7.62298e-07 6.83231e-08)
(0.000815007 -8.54813e-07 5.33537e-08)
(0.00108573 -1.20322e-06 1.81127e-07)
(0.000812247 -4.06955e-07 7.18433e-08)
(0.000813297 -4.74555e-07 7.65174e-08)
(0.00108362 -6.2797e-07 1.78747e-07)
(0.000810613 -2.6708e-07 4.07728e-08)
(0.000811513 -5.89652e-07 5.12962e-08)
(0.00108146 -3.33536e-07 1.66777e-07)
(0.000809059 -1.92248e-07 4.27493e-08)
(0.000809841 -1.83703e-07 2.25476e-08)
(0.00107943 -3.01301e-07 1.56319e-07)
(0.000807372 -7.7466e-08 5.15567e-08)
(0.000808232 -1.65579e-07 8.93926e-08)
(0.00107726 -1.2388e-07 1.7999e-07)
(0.000805781 -6.28646e-08 2.3906e-08)
(0.000806562 1.73174e-08 5.63294e-08)
(0.001075 2.54262e-08 1.99321e-07)
(0.0008043 -6.93113e-08 2.68694e-08)
(0.000805036 -1.3401e-07 2.31476e-08)
(0.00107296 -8.77387e-08 1.67206e-07)
(0.000802762 3.04723e-09 5.09582e-08)
(0.00080362 -1.20004e-07 3.52518e-08)
(0.00107099 -2.94957e-08 1.8065e-07)
(0.00080123 9.91525e-08 7.23887e-08)
(0.000802105 -1.29047e-07 2.62799e-08)
(0.00106896 1.00622e-07 2.01457e-07)
(0.000799983 9.63536e-08 6.85794e-08)
(0.000800547 -9.61298e-07 6.57524e-08)
(0.00106708 2.46533e-07 2.33363e-07)
(0.000798358 -6.75808e-10 4.84401e-08)
(0.000798987 1.08e-07 4.13209e-08)
(0.0010651 8.37392e-08 1.72397e-07)
(0.000797036 -2.40379e-08 8.72116e-08)
(0.000797576 -2.16688e-07 4.75092e-08)
(0.00106332 -4.36974e-08 1.78987e-07)
(0.000794659 -1.63884e-07 1.82567e-07)
(0.000795751 1.35564e-06 9.90008e-08)
(0.00106074 3.4193e-10 1.92815e-07)
(0.00079356 -5.52693e-07 8.06636e-08)
(0.000793859 -5.39219e-07 7.24914e-08)
(0.00105832 -4.49779e-07 1.57127e-07)
(0.00079168 -7.18794e-07 -4.90504e-08)
(0.000792549 2.88345e-06 4.22143e-08)
(0.0010565 -1.05801e-06 -2.73914e-08)
(0.000789987 -5.84389e-07 3.11521e-08)
(0.000791101 1.12085e-06 9.66068e-09)
(0.00105395 -8.72454e-07 8.48722e-08)
(0.000789065 -3.99835e-07 6.60164e-08)
(0.000789738 1.23024e-07 1.3605e-07)
(0.00105222 -6.70977e-07 1.63383e-07)
(0.000787852 -1.32775e-07 6.50836e-08)
(0.00078864 -2.90437e-08 1.13533e-07)
(0.00105098 -3.3557e-07 1.24078e-07)
(0.000786252 7.16383e-08 7.5962e-08)
(0.0007871 3.45287e-08 6.59774e-08)
(0.00104914 5.81682e-08 1.79738e-07)
(0.000784346 7.97379e-08 5.21624e-08)
(0.000785286 2.61775e-08 5.71367e-08)
(0.00104672 2.05797e-07 2.32417e-07)
(0.000782876 6.29242e-08 3.41964e-08)
(0.000783746 9.89987e-08 4.46226e-08)
(0.00104439 7.365e-08 1.75165e-07)
(0.000781439 2.06339e-07 4.71836e-08)
(0.000782297 1.57186e-07 4.49659e-08)
(0.00104236 1.62387e-07 1.63061e-07)
(0.00077986 3.34737e-07 7.38018e-08)
(0.000780761 2.40409e-07 3.98134e-08)
(0.00104046 4.81247e-07 1.85171e-07)
(0.000778994 1.8538e-07 5.92134e-08)
(0.000779347 -1.04273e-06 6.06744e-08)
(0.00103895 4.73877e-07 1.93429e-07)
(0.000777407 4.97502e-09 -7.54706e-09)
(0.000778005 1.08903e-07 4.41503e-08)
(0.00103722 4.10804e-08 1.75485e-07)
(0.000775971 -1.43782e-07 2.38656e-08)
(0.000776483 8.0942e-08 6.89625e-09)
(0.0010351 -1.06611e-08 1.47843e-07)
(0.000774568 -2.42059e-07 1.65117e-07)
(0.000775111 -2.80909e-07 8.19437e-08)
(0.00103347 -3.81581e-07 3.05576e-07)
(0.000773075 -1.62249e-07 1.43457e-07)
(0.000773772 -3.3549e-07 1.56897e-07)
(0.00103138 -2.82024e-07 1.76561e-07)
(0.000771475 -1.06013e-07 3.79027e-08)
(0.000772299 1.17886e-07 5.3926e-08)
(0.00102925 -1.78356e-07 1.64466e-07)
(0.000770055 -1.61429e-07 3.88984e-08)
(0.000770783 9.75846e-09 4.45542e-08)
(0.0010273 -1.45867e-07 1.42193e-07)
(0.00076876 -3.43973e-07 4.70049e-08)
(0.00076937 -9.7902e-08 5.95555e-08)
(0.00102542 -2.83057e-07 1.74831e-07)
(0.000767359 -3.69652e-07 9.80036e-09)
(0.00076808 -3.733e-07 4.77851e-08)
(0.00102383 -5.84663e-07 1.72742e-07)
(0.000765516 -2.46705e-07 2.55985e-08)
(0.000766422 1.22192e-06 3.05892e-08)
(0.00102153 -3.76867e-07 8.35902e-08)
(0.000765017 -4.99372e-07 5.02511e-08)
(0.00101913 -2.99347e-07 2.63745e-07)
(-0.017276 0.00127884 0.000433125)
(0.00178481 -0.00559983 0.00113241)
(-0.00544148 -0.0105643 -0.00704525)
(-0.00354779 -0.000663548 0.00110461)
(-0.01263 -0.00689329 -0.000691906)
(-0.00172102 0.0125463 -3.178e-05)
(0.00646957 -0.00503096 0.0143798)
(-0.00647679 -0.00962459 -1.04679e-06)
(0.0114052 0.00289798 -0.00081468)
(-0.00625715 -0.00199455 0.00154349)
(-0.013469 0.0176961 0.000387107)
(-0.00367657 -0.00486369 0.00261008)
(-0.00285856 0.0162479 -0.00113729)
(-0.00287065 0.00246064 -0.000393282)
(-0.00958604 0.00300932 2.90207e-05)
(-0.0160308 -0.00171289 -0.00123932)
(-0.0107294 0.00247606 -0.00125963)
(0.0053913 0.00662799 -1.80494e-05)
(-0.0214067 0.0206923 -0.000347029)
(0.00359967 0.0074549 -0.000200442)
(0.00359967 0.0074549 -0.000200442)
(-0.0214067 0.0206923 -0.000347029)
(0.0109825 -0.00254436 0.00168143)
(-0.0269844 0.00541649 0.00108284)
(-0.0661717 0.00821542 0.010096)
(-0.0367603 -0.000974152 0.00129194)
(-0.104366 -0.0158791 -0.0038424)
(0.000347834 0.00622749 -8.52893e-05)
(-0.00199453 0.00119762 0.00017164)
(-0.008374 0.00747445 0.000346084)
(-0.00720726 0.00397046 0.00127572)
(0.0142006 0.00877876 0.00315222)
(0.00174088 0.0030886 -0.000176979)
(-0.00132406 0.00177668 -0.000115332)
(0.00106097 0.00318588 -3.09737e-05)
(0.000473174 0.00221614 -1.86735e-05)
(0.00253428 0.00442889 -0.000141869)
(0.00120153 7.48387e-05 1.6631e-05)
(0.000496458 -9.32672e-05 3.84308e-05)
(0.000464096 -0.000113837 4.11438e-05)
(0.000619101 -8.53696e-05 7.2145e-05)
(0.00036245 -6.64831e-05 1.99881e-05)
(0.000879497 -2.63612e-05 -1.34215e-06)
(0.000619714 -2.13473e-05 -1.61656e-06)
(0.00119965 -6.24814e-05 -1.74268e-06)
(0.000649215 -2.40054e-05 -5.67913e-06)
(0.000646852 -4.3295e-05 -2.93664e-06)
(0.00107969 -3.32728e-05 -5.75314e-06)
(0.00110389 -7.73148e-05 1.22622e-06)
(0.000599448 -3.41936e-05 -4.37988e-06)
(0.00103114 -4.60716e-05 -1.09841e-06)
(0.000986988 -5.98919e-05 -5.30561e-06)
(0.000852898 -8.27669e-06 -8.97432e-08)
(0.000881247 8.96369e-06 -1.06581e-06)
(0.00114374 -5.45014e-06 9.98416e-08)
(0.000841467 -9.60951e-06 2.8344e-08)
(0.000839792 -5.96322e-06 -1.90926e-07)
(0.00112467 -1.54822e-05 1.69052e-07)
(0.000833234 -6.17083e-06 3.87206e-08)
(0.000837831 -3.16731e-06 1.02536e-07)
(0.0011136 -9.32116e-06 1.7816e-07)
(0.000827829 -4.24842e-06 3.83621e-08)
(0.000830446 -2.66682e-06 4.17468e-08)
(0.00110535 -6.60959e-06 1.80385e-07)
(0.000823783 -2.83429e-06 4.11339e-08)
(0.000826176 -1.41263e-06 1.51009e-07)
(0.00109975 -4.37332e-06 1.65721e-07)
(0.000820759 -1.91645e-06 4.82986e-08)
(0.000822606 -1.27157e-06 4.99106e-08)
(0.00109537 -2.97962e-06 1.79388e-07)
(0.000818252 -1.3732e-06 5.51797e-08)
(0.000819726 -9.03362e-07 5.17343e-08)
(0.00109197 -2.00993e-06 1.81313e-07)
(0.00081631 -8.89957e-07 5.6875e-08)
(0.000817495 -3.71116e-10 5.92607e-08)
(0.00108909 -1.54876e-06 2.56002e-07)
(0.00081445 -4.70815e-07 6.15406e-08)
(0.000815533 -4.72217e-07 -2.00251e-08)
(0.00108667 -7.53199e-07 1.7856e-07)
(0.000812608 -2.16845e-07 5.59784e-08)
(0.000813615 4.8454e-07 5.95665e-08)
(0.00108428 -4.78844e-07 1.37138e-07)
(0.000810669 -1.07209e-07 3.30802e-08)
(0.000811651 2.50841e-08 7.57115e-08)
(0.00108173 -7.12928e-08 1.69362e-07)
(0.000809005 -1.13005e-07 6.91695e-08)
(0.000809834 -6.16276e-08 3.31968e-08)
(0.00107937 -1.70518e-07 1.79627e-07)
(0.00080741 -5.77306e-08 9.41759e-08)
(0.000808301 -5.18979e-07 7.38809e-08)
(0.00107726 -9.62208e-08 2.06732e-07)
(0.000805756 1.26317e-07 5.55816e-08)
(0.000806792 2.6779e-08 5.96789e-08)
(0.00107503 -2.65514e-08 1.86778e-07)
(0.000804441 2.11183e-07 3.15261e-08)
(0.000805141 5.82949e-07 5.96425e-08)
(0.00107297 3.95147e-07 1.07974e-07)
(0.000802898 6.9433e-08 1.05764e-08)
(0.000803442 2.55005e-07 2.11529e-08)
(0.00107122 2.283e-07 1.51618e-07)
(0.000801428 -3.3787e-08 1.96311e-08)
(0.000801975 -9.26796e-08 2.27797e-08)
(0.00106924 3.65752e-08 1.69089e-07)
(0.000799576 -1.53952e-07 3.85016e-08)
(0.000800397 -7.49132e-08 3.84336e-08)
(0.00106689 -7.37665e-08 1.42993e-07)
(0.000798149 -2.93645e-07 4.0388e-08)
(0.000798814 -2.87385e-08 4.39604e-08)
(0.0010647 -2.90966e-07 1.77517e-07)
(0.000796516 -6.32698e-07 5.92821e-08)
(0.000797155 -3.05402e-08 5.58193e-08)
(0.00106276 -4.52219e-07 1.73187e-07)
(0.000794752 -7.51727e-07 -1.1066e-08)
(0.000795605 1.48373e-06 1.49159e-08)
(0.00106047 -1.23197e-06 1.88821e-07)
(0.000792787 -6.411e-07 3.40516e-08)
(0.000794001 4.1265e-07 -2.60662e-08)
(0.00105784 -7.9053e-07 1.48511e-07)
(0.000792061 -5.25502e-07 1.00936e-07)
(0.000792696 2.0739e-08 1.29995e-07)
(0.00105619 -8.97725e-07 3.09038e-07)
(0.000790749 -3.52122e-08 1.14519e-07)
(0.000791715 -7.66245e-08 4.93864e-08)
(0.00105486 -4.60768e-07 2.43306e-07)
(0.000789299 3.75923e-07 1.83573e-07)
(0.000790251 6.28179e-07 2.41039e-07)
(0.00105297 4.28163e-07 1.35047e-07)
(0.000788099 2.57121e-07 1.14441e-07)
(0.00078849 8.95127e-07 1.60031e-07)
(0.0010513 6.60824e-07 8.31149e-08)
(0.000786039 8.71851e-09 4.71549e-08)
(0.000786789 6.96532e-07 7.42195e-08)
(0.00104906 8.86518e-08 1.78505e-07)
(0.000784594 3.03608e-08 4.96008e-08)
(0.000785312 -9.19721e-08 4.73666e-08)
(0.00104665 -2.82859e-08 1.79341e-07)
(0.000783233 1.28271e-07 5.5392e-08)
(0.000783868 -2.25511e-07 6.09615e-08)
(0.00104482 1.25019e-07 1.8699e-07)
(0.00078164 2.48651e-07 3.75972e-08)
(0.000782447 1.57845e-07 5.93387e-08)
(0.00104296 2.52557e-07 1.84794e-07)
(0.000780143 4.12712e-07 2.66796e-08)
(0.000780964 4.06581e-07 3.18805e-08)
(0.00104079 4.93794e-07 1.6435e-07)
(0.000778386 3.10075e-07 4.56164e-08)
(0.000779217 -9.0909e-07 3.66724e-08)
(0.00103853 6.68527e-07 1.90403e-07)
(0.000777164 -2.28768e-08 5.86051e-08)
(0.000777588 -1.30441e-07 6.70307e-08)
(0.00103664 1.73223e-07 1.69423e-07)
(0.00077555 -2.25298e-07 6.49513e-08)
(0.000776231 4.92453e-07 6.21155e-08)
(0.0010347 -2.09582e-07 1.57931e-07)
(0.000774297 -3.14356e-07 7.3701e-08)
(0.000775001 -1.79764e-07 1.29976e-07)
(0.00103275 -3.69896e-07 1.48035e-07)
(0.000773046 -2.38681e-07 6.7397e-08)
(0.000773868 -1.37364e-07 8.70331e-08)
(0.00103126 -5.11393e-07 1.41065e-07)
(0.000771625 -1.34222e-07 6.05803e-08)
(0.000772431 -8.1265e-08 6.82907e-08)
(0.00102943 -1.86158e-07 1.85551e-07)
(0.000769998 -4.07885e-08 6.52067e-08)
(0.0007709 -5.29126e-09 8.94017e-08)
(0.00102738 -2.06283e-07 1.91225e-07)
(0.000768728 -3.80465e-08 6.03393e-08)
(0.000769373 3.52991e-07 6.17228e-08)
(0.00102548 9.60218e-08 1.25071e-07)
(0.000767276 -2.51512e-07 6.85792e-08)
(0.000767814 -3.70683e-07 5.52921e-08)
(0.00102363 -1.62354e-07 1.74591e-07)
(0.000765671 -3.07118e-07 5.52358e-08)
(0.000766356 4.21519e-07 7.36554e-08)
(0.00102149 -4.74073e-07 2.47571e-07)
(0.0007654 8.22625e-08 5.96545e-08)
(0.00102013 -3.28571e-07 8.04824e-08)
(-1.07464e-05 0.00406689 2.94596e-05)
(0.00610128 -0.0048812 5.47377e-05)
(-0.00278572 0.00394042 0.00555726)
(0.0127853 0.000384419 -0.00512262)
(0.000406236 0.00158817 -0.00353065)
(0.00842074 -0.00444709 0.00318883)
(0.00560646 -0.00442028 -0.000271226)
(0.00444314 0.00381373 -6.10188e-05)
(-0.00880208 0.00810618 0.000978828)
(0.00586418 0.0116281 -0.00407475)
(0.00269388 0.00829699 7.74251e-05)
(-0.00129029 0.0128729 0.000797386)
(-0.00959141 0.00175063 0.000134174)
(0.00297644 -0.0114701 -0.000243361)
(-0.00485755 0.0192707 1.39879e-06)
(0.00829343 0.00107385 -0.00133898)
(0.0080867 0.00171272 -3.32066e-05)
(0.00771572 0.00126483 -0.00204101)
(0.00138868 0.00321929 7.16772e-05)
(-0.0152248 0.00205491 0.000393961)
(-0.000570546 0.000538454 -3.07342e-05)
(0.00118721 -0.00429853 0.000216519)
(0.00172779 -0.00362496 0.000942219)
(0.00196669 -0.00996502 0.000149819)
(0.00683913 -0.0108032 -0.000441148)
(0.00784527 -0.00862289 0.00146223)
(0.00618633 -0.00334498 0.00133837)
(0.0134375 -0.00470695 3.69529e-05)
(-0.000442312 0.0076794 -7.73149e-06)
(0.0127925 0.00504884 0.000247146)
(0.00647996 0.00599357 0.000839176)
(2.9197e-05 0.00476502 -0.000393337)
(0.00677034 0.000466797 -0.000192605)
(-0.00148875 0.00225891 -0.000113936)
(0.00120668 0.00460525 0.000168848)
(-6.85057e-06 0.00357178 -8.38511e-06)
(0.000280073 0.00200618 0.000575791)
(-0.00187106 0.00845893 0.000119039)
(0.000694524 0.000427953 3.01633e-05)
(0.00125564 0.000377522 7.19311e-06)
(0.0012123 0.000287247 7.07545e-05)
(0.00146688 0.000449233 -4.43109e-05)
(0.00129259 0.00011967 2.77653e-05)
(0.000346244 -1.50907e-05 -3.12317e-06)
(0.000498924 -2.2494e-05 -3.40395e-06)
(0.000481008 -2.11683e-05 -6.02223e-07)
(0.000784394 -4.28244e-05 -1.48452e-06)
(0.000333038 -5.7895e-06 -1.76188e-06)
(0.000633202 -2.51971e-05 -3.95283e-06)
(0.000612434 -6.01061e-06 1.87023e-06)
(0.000845354 2.08886e-06 -1.16728e-06)
(0.000905909 1.20174e-06 -1.77823e-06)
(0.00119379 6.14688e-06 -1.14649e-06)
(0.000613305 -1.19339e-05 -4.1964e-06)
(0.000631705 -2.40943e-06 -4.91815e-06)
(0.00100553 -3.54789e-05 -5.12234e-06)
(0.00104913 -1.51874e-05 -6.12719e-06)
(0.00083932 -1.70647e-06 -1.1683e-07)
(0.000835048 9.63081e-07 -3.46039e-07)
(0.00110682 -5.41538e-06 8.5545e-08)
(0.000833319 -7.196e-07 1.05582e-07)
(0.000839091 1.94787e-06 1.57743e-07)
(0.00111531 -2.04325e-06 2.08168e-07)
(0.000828422 -6.37843e-07 1.54358e-07)
(0.000830564 1.44434e-06 2.69697e-08)
(0.00110564 -1.68357e-06 1.82267e-07)
(0.000824625 -4.48111e-07 1.59818e-07)
(0.000826424 1.15723e-06 1.60522e-07)
(0.00110094 -1.14141e-06 1.9436e-07)
(0.000821374 -3.16355e-07 5.33457e-08)
(0.000822777 7.59843e-07 5.1661e-08)
(0.00109646 -7.57877e-07 1.8492e-07)
(0.000818678 -2.33685e-07 5.58129e-08)
(0.000819834 4.8394e-07 5.14113e-08)
(0.0010926 -5.2358e-07 1.81501e-07)
(0.000816786 -2.177e-07 -1.76138e-08)
(0.000817518 3.04145e-07 5.46705e-08)
(0.00108975 -3.82538e-07 1.86816e-07)
(0.000814594 -2.75765e-07 -2.20249e-08)
(0.000815463 4.08556e-07 -9.05285e-09)
(0.00108707 -3.79801e-07 1.72859e-07)
(0.000812729 -3.62931e-07 7.92944e-08)
(0.000813508 5.29804e-07 4.98249e-08)
(0.00108447 -4.64711e-07 2.02228e-07)
(0.000810648 -3.04791e-07 7.58417e-08)
(0.000811725 6.67896e-07 7.24521e-08)
(0.00108184 -5.71665e-07 1.79616e-07)
(0.000809142 -1.62035e-07 3.78951e-08)
(0.000810014 -1.34456e-07 3.73907e-08)
(0.0010794 -2.87354e-07 1.79507e-07)
(0.000807606 -9.05575e-08 3.93883e-08)
(0.000808391 -4.06859e-07 -1.75844e-08)
(0.00107744 -1.87653e-07 1.69268e-07)
(0.000806349 -3.62243e-08 6.37398e-08)
(0.00080686 -2.7233e-07 4.79314e-08)
(0.00107561 -8.59933e-08 1.73757e-07)
(0.000804023 2.60013e-09 4.92815e-08)
(0.000805189 -1.50578e-07 5.76171e-08)
(0.00107328 2.18546e-09 2.97209e-07)
(0.000802459 1.97801e-08 3.33557e-08)
(0.000803463 -1.69486e-07 4.03227e-08)
(0.00107054 6.53904e-08 2.09255e-07)
(0.000801052 -2.16203e-08 4.15773e-08)
(0.000801923 -1.95336e-07 3.8276e-08)
(0.00106858 2.26684e-08 1.73215e-07)
(0.000799539 -6.31083e-08 4.38906e-08)
(0.000800345 -1.43277e-07 3.20344e-08)
(0.00106667 -6.63566e-08 1.80247e-07)
(0.000797961 -7.8008e-08 5.93878e-08)
(0.000798795 1.82229e-07 6.09755e-08)
(0.00106463 -6.43249e-08 1.66363e-07)
(0.000796071 -9.31702e-08 1.1466e-08)
(0.000797136 -5.39282e-08 7.56622e-08)
(0.00106215 -9.39841e-08 2.10349e-07)
(0.000795077 1.34888e-07 -7.137e-11)
(0.00079589 -6.85758e-07 2.63787e-08)
(0.00106033 -1.06815e-07 2.82955e-07)
(0.000793487 5.87518e-07 6.98278e-08)
(0.000794565 -8.57361e-07 4.18089e-08)
(0.00105875 5.13921e-07 2.72341e-07)
(0.000792614 7.79968e-07 7.84709e-08)
(0.000792934 -1.29996e-06 6.0298e-08)
(0.00105692 1.0747e-06 2.12977e-07)
(0.000791208 6.21457e-07 1.75846e-07)
(0.000791514 -1.5588e-06 1.54219e-08)
(0.00105561 9.93256e-07 2.71861e-07)
(0.000789536 4.29996e-07 2.17522e-07)
(0.00079001 3.72102e-07 1.81497e-07)
(0.00105362 6.64348e-07 2.08783e-07)
(0.000787086 1.9735e-07 1.19836e-07)
(0.000788198 -2.7067e-09 9.50089e-08)
(0.00105055 4.78219e-07 3.23824e-07)
(0.000786044 6.3621e-08 7.44396e-08)
(0.000786621 3.33326e-07 7.67481e-08)
(0.00104827 3.67724e-08 1.6088e-07)
(0.000784582 8.95035e-08 5.87231e-08)
(0.000785344 -8.51846e-08 6.62032e-08)
(0.00104676 1.14229e-07 1.7204e-07)
(0.000783082 3.67935e-08 6.49086e-08)
(0.000783802 1.02596e-08 5.42667e-08)
(0.00104474 1.03264e-07 1.59327e-07)
(0.000781721 1.28702e-08 5.36305e-08)
(0.000782417 4.29875e-08 5.08459e-08)
(0.00104282 -8.01948e-09 1.72145e-07)
(0.000780232 -1.71999e-08 4.18719e-08)
(0.000780926 4.82091e-07 2.72021e-08)
(0.00104097 2.30363e-08 1.70231e-07)
(0.000778223 -1.63597e-08 5.80773e-08)
(0.000779218 -4.47171e-07 2.97809e-08)
(0.00103855 -7.90929e-08 1.89431e-07)
(0.00077667 -2.15182e-08 7.05426e-08)
(0.000777582 -3.23859e-08 6.15139e-08)
(0.00103612 4.41001e-08 1.74844e-07)
(0.000775639 1.14292e-07 1.27119e-07)
(0.0007764 -6.09947e-08 4.89943e-08)
(0.00103442 -7.51881e-08 1.75038e-07)
(0.000774615 2.63293e-07 1.43321e-07)
(0.000775186 8.39907e-07 1.56349e-07)
(0.0010331 4.38477e-07 6.09212e-08)
(0.00077332 2.02064e-07 8.79326e-08)
(0.00077379 3.24136e-07 2.21999e-08)
(0.00103161 3.49285e-07 1.25959e-07)
(0.000771702 1.82335e-07 9.71056e-08)
(0.000772405 -1.21699e-07 5.24512e-08)
(0.00102964 3.11916e-07 1.91944e-07)
(0.000770219 2.60546e-07 8.59262e-08)
(0.000770997 -8.4631e-08 7.79074e-08)
(0.00102765 2.88095e-07 1.82794e-07)
(0.000768467 2.49178e-07 5.66776e-08)
(0.000769357 2.2244e-07 7.15986e-08)
(0.00102548 4.61804e-07 2.11347e-07)
(0.000766883 1.21644e-07 6.03627e-08)
(0.000767653 -5.13697e-08 5.16328e-08)
(0.00102312 2.42447e-07 1.63518e-07)
(0.000765879 8.28223e-08 7.80783e-08)
(0.000766306 -2.34852e-07 5.2988e-08)
(0.00102133 1.22966e-07 1.82051e-07)
(0.000765296 1.29954e-07 6.97824e-08)
(0.00102013 1.11039e-07 1.58475e-07)
(0.00487951 -0.00589856 0.000200318)
(0.00719774 -0.00532868 -0.000192959)
(0.00368988 -0.00831387 -0.00030752)
(0.0034737 0.00588388 9.93258e-05)
(0.00239004 -0.00231308 -3.21263e-05)
(0.00810557 -0.00588737 0.00354182)
(0.00677139 -0.0113156 -0.000483063)
(-0.00542675 0.00102389 0.00115073)
(0.00208088 0.00233771 -0.00210149)
(0.00329306 0.00853445 -0.000168701)
(-0.00181164 0.00675959 0.000773515)
(0.00286475 0.0105432 -0.00635027)
(-0.0171924 0.00123882 0.00197339)
(-0.000660257 0.0223939 -0.00297841)
(-0.00308479 0.0263224 0.00678257)
(0.00300607 0.00301131 -3.11283e-05)
(0.00182985 0.00371622 -9.97906e-05)
(0.00257928 0.00387154 0.000152378)
(0.00288982 0.00707325 -4.00408e-05)
(0.000514384 -0.00315129 -0.000623925)
(-0.00711675 -0.00883813 -0.000148589)
(0.00163992 0.00712658 0.00530474)
(0.00408241 -0.00363108 0.000161922)
(0.000948859 0.0234197 -9.33226e-06)
(0.0150904 0.00120163 0.00137621)
(-0.00690766 0.00244893 -0.000308279)
(-0.00328137 -0.0100615 -0.00062097)
(-0.00806918 0.00442793 -0.0010725)
(-0.00312415 0.000251405 -0.00172631)
(0.00269579 0.0171681 0.000516055)
(-0.00863677 0.00714434 -0.002141)
(0.000720158 0.00450397 -0.00105318)
(0.00929282 7.87721e-05 -0.000380424)
(0.000979414 0.0191274 -0.00233635)
(-0.0241399 0.0027447 0.000779229)
(0.00333156 -0.00991755 0.000470947)
(0.00683404 -0.00389634 -0.00037801)
(0.00763595 -0.00295153 -0.000232768)
(0.00433977 0.014522 -0.000999267)
(0.000292345 0.00285844 -0.0001471)
(-0.00068628 -0.00256059 8.15432e-05)
(0.00304081 -0.00211405 0.000162208)
(-0.000539848 -0.00790081 0.000121748)
(-0.00304136 -0.00453891 0.000410713)
(-0.000218842 -0.000566494 -5.18705e-06)
(-0.000131349 -0.000216872 -7.8693e-06)
(-0.000351931 -0.000376504 -1.86545e-05)
(-0.000566201 -0.000927717 -4.69717e-05)
(0.000465726 -0.000366891 5.23685e-05)
(0.000403071 -4.97982e-05 1.67582e-05)
(0.000510781 -1.10951e-05 -2.10449e-06)
(0.00084121 -5.73167e-05 6.6653e-06)
(0.000417034 -8.20982e-05 2.44788e-05)
(0.000700359 -7.96268e-05 4.18881e-05)
(0.000737963 -0.000119133 5.93723e-05)
(0.000503901 -7.22347e-06 9.05263e-07)
(0.000395837 -2.10856e-05 3.07967e-06)
(0.000725829 -4.1123e-05 1.07024e-05)
(0.000636743 -5.71839e-05 -1.36525e-06)
(0.000348177 -3.32214e-05 -1.47333e-06)
(0.000853148 4.07869e-06 -9.57458e-07)
(0.000909332 1.69311e-05 -1.78834e-06)
(0.00121342 -2.09443e-06 -1.28101e-06)
(0.00063039 6.13427e-06 -4.44659e-06)
(0.000644603 8.31518e-06 -4.79942e-06)
(0.00103443 4.70094e-06 -5.17843e-06)
(0.00109019 8.82317e-06 -5.67113e-06)
(0.000842209 5.30589e-06 -7.16307e-08)
(0.000836585 1.42566e-05 -3.6936e-07)
(0.00111444 4.19615e-06 7.09956e-08)
(0.000834044 4.34023e-06 7.91738e-08)
(0.00083791 9.84098e-06 1.30655e-07)
(0.00111834 4.46394e-06 2.04409e-07)
(0.000828388 3.14756e-06 3.30905e-08)
(0.000829088 6.61392e-06 1.13351e-09)
(0.00110653 3.69257e-06 1.75704e-07)
(0.00082424 2.13151e-06 5.24002e-08)
(0.000825161 4.30908e-06 1.49529e-07)
(0.00110093 2.57086e-06 1.85095e-07)
(0.000821043 1.42266e-06 4.97266e-08)
(0.000821895 2.77255e-06 4.93383e-08)
(0.00109616 1.77808e-06 1.81756e-07)
(0.00081846 9.57366e-07 5.02679e-08)
(0.000819254 1.72859e-06 4.55586e-08)
(0.00109245 1.20274e-06 1.81721e-07)
(0.000816224 5.48139e-07 6.32521e-08)
(0.000817007 1.11839e-06 4.72817e-08)
(0.00108927 8.61036e-07 1.81352e-07)
(0.000814285 2.21515e-07 6.27779e-08)
(0.000815055 6.60313e-07 6.22189e-08)
(0.00108657 3.00935e-07 1.94416e-07)
(0.000812473 -4.75705e-08 4.29753e-08)
(0.000813173 3.70781e-07 4.84909e-08)
(0.00108405 1.08743e-07 2.11709e-07)
(0.000811067 -2.47878e-07 3.40124e-08)
(0.000811476 3.7778e-07 1.3165e-07)
(0.00108195 -3.50679e-07 1.85868e-07)
(0.00080925 -2.19635e-07 -1.80711e-08)
(0.000810051 1.12794e-07 -1.2577e-08)
(0.00107985 -3.83688e-07 1.84281e-07)
(0.000807589 -1.66407e-07 -9.06225e-09)
(0.000808459 -1.65603e-08 -2.23116e-09)
(0.00107752 -2.48549e-07 1.60839e-07)
(0.000805819 -2.50905e-07 4.18056e-08)
(0.000806755 2.32661e-08 3.31086e-08)
(0.00107527 -2.29823e-07 1.76956e-07)
(0.000804478 -2.07763e-07 4.86638e-08)
(0.000805245 5.59397e-09 3.28297e-08)
(0.00107316 -4.56136e-07 1.49388e-07)
(0.000803009 3.49689e-09 4.52436e-08)
(0.000803728 -1.44966e-07 7.87315e-08)
(0.00107125 -1.21454e-07 1.69739e-07)
(0.00080119 1.45204e-07 2.87351e-08)
(0.0008021 9.17471e-08 9.95878e-08)
(0.00106907 9.40022e-08 1.81991e-07)
(0.000799569 2.46985e-07 4.91101e-08)
(0.000800471 2.88253e-09 4.82483e-08)
(0.00106678 2.65388e-07 1.74689e-07)
(0.00079806 3.21667e-07 7.72453e-08)
(0.000798887 -3.44621e-09 6.7646e-08)
(0.00106467 3.85123e-07 1.88139e-07)
(0.000796704 5.93392e-07 9.05905e-08)
(0.000797473 -4.78488e-07 5.90821e-08)
(0.0010627 5.1314e-07 1.91639e-07)
(0.00079567 6.83336e-07 6.82541e-08)
(0.000795999 -2.40522e-06 4.60639e-08)
(0.00106122 1.15393e-06 2.54828e-07)
(0.000793806 6.24925e-07 3.22733e-08)
(0.000794488 3.16546e-07 1.00657e-07)
(0.00105931 7.62302e-07 1.23961e-07)
(0.000791996 6.03613e-07 -2.7368e-09)
(0.000792904 -5.18258e-07 4.052e-08)
(0.00105678 9.69326e-07 1.47104e-07)
(0.00079016 2.93786e-07 2.1021e-08)
(0.000791124 -6.34215e-08 -3.25034e-10)
(0.00105434 7.15066e-07 9.88845e-08)
(0.000788917 -1.7105e-08 5.90114e-08)
(0.000789619 3.60034e-07 1.21546e-07)
(0.00105232 1.32483e-07 1.53335e-07)
(0.000787422 8.85362e-09 5.19268e-08)
(0.00078823 2.51575e-08 4.92588e-08)
(0.00105052 -1.58921e-07 1.73122e-07)
(0.000786093 1.14617e-07 6.85149e-08)
(0.000786753 3.3742e-07 5.9565e-08)
(0.00104861 1.89892e-07 1.60196e-07)
(0.000784517 5.79528e-08 6.17505e-08)
(0.000785273 -4.44967e-08 6.33045e-08)
(0.00104673 1.09559e-07 1.79827e-07)
(0.000783059 4.82228e-09 4.02051e-08)
(0.000783735 3.38588e-08 -3.57273e-08)
(0.00104467 2.87332e-08 1.70717e-07)
(0.000781741 -1.60418e-07 2.44249e-08)
(0.000782211 -1.41506e-07 4.36332e-08)
(0.00104286 -3.90782e-08 1.73358e-07)
(0.0007799 -2.82484e-07 1.51103e-08)
(0.000780775 1.94422e-06 5.55351e-08)
(0.0010407 -4.1072e-07 1.02248e-07)
(0.000778596 -1.3677e-07 3.32076e-08)
(0.000779401 -1.71678e-07 5.41959e-08)
(0.00103855 -3.77377e-07 1.39486e-07)
(0.000777042 8.87435e-08 3.99694e-08)
(0.000777864 1.22924e-07 6.06259e-08)
(0.00103664 -1.38169e-08 1.70799e-07)
(0.000776251 2.76467e-07 7.8191e-08)
(0.000776633 -3.61549e-07 9.79648e-08)
(0.00103519 2.67969e-07 1.35102e-07)
(0.000774187 3.69829e-07 3.52689e-08)
(0.000775301 3.65563e-08 6.76309e-08)
(0.00103328 5.26886e-07 2.86827e-07)
(0.000772946 2.11857e-07 -1.32908e-08)
(0.000773591 5.21989e-07 1.99392e-08)
(0.0010311 5.22102e-07 1.40286e-07)
(0.00077166 2.68496e-08 3.32452e-08)
(0.000772173 1.40731e-07 3.46288e-08)
(0.00102935 9.16781e-08 1.39758e-07)
(0.000770336 -4.14037e-08 6.35818e-08)
(0.000770911 -2.76184e-08 4.36302e-08)
(0.00102757 1.66841e-08 1.58416e-07)
(0.000768281 -9.44644e-09 6.65599e-08)
(0.000769397 -5.20158e-07 2.08122e-08)
(0.00102542 -1.06673e-07 2.83568e-07)
(0.000767148 1.74999e-07 4.42576e-08)
(0.000767883 -3.31032e-07 -1.33722e-08)
(0.0010232 9.38404e-08 1.65956e-07)
(0.000765568 2.58809e-07 4.4687e-08)
(0.000766407 5.26826e-08 2.3228e-08)
(0.00102132 3.63095e-07 1.65733e-07)
(0.000764974 3.64451e-07 7.01657e-08)
(0.00101984 3.166e-07 1.23573e-07)
(0.0055019 -0.00304797 7.5571e-05)
(-0.0066815 0.00286296 0.00145514)
(0.00248223 -0.000392586 -0.000934664)
(0.00304829 -0.000396273 -0.00175639)
(0.0127671 0.00117735 0.000230369)
(0.00644531 0.00771424 -0.000745121)
(-0.00140374 -0.00605095 0.000201198)
(0.00388006 -0.00944926 6.92784e-05)
(-0.00615208 -0.00958552 6.00568e-05)
(-0.00243616 0.00922377 0.000330173)
(0.00577725 0.00162195 0.00100597)
(-0.00290008 -0.0148021 0.000869566)
(-0.00112814 -0.00954619 -0.0016721)
(0.00295327 0.00433292 0.000620155)
(-0.0144436 0.00604004 0.000285562)
(-0.00610094 -0.00231052 0.000202034)
(0.00939492 0.0040124 -0.000333043)
(-0.0177627 -0.00970431 0.00331374)
(0.00138797 0.00168462 0.000303919)
(-0.00225681 0.00335367 -0.00113066)
(-0.00153739 0.00960236 0.00153348)
(-0.00500643 0.00582803 -0.000629668)
(0.00868862 0.0108998 -0.00391808)
(0.0132578 0.0245762 0.00266294)
(-0.00380423 0.00686971 -0.000178377)
(-0.00439322 -0.00240262 -2.67949e-05)
(-0.00165185 0.0181096 0.000471198)
(-0.0085399 -0.00197432 -0.000226983)
(-0.00656627 -0.00029302 -0.000247386)
(-0.00533035 -0.0115731 -0.000368687)
(0.00613717 -0.013404 0.00023237)
(0.00881731 -0.0134544 2.26632e-05)
(0.00582313 -0.00971956 -0.000867543)
(-0.000923111 -0.00562435 -0.000120422)
(-0.000961989 -0.0148207 -0.00166802)
(-0.000851626 -0.00372912 0.00027086)
(-0.00476402 -0.0164502 0.000168178)
(0.000620064 -0.0156744 -0.000430532)
(0.00336045 0.00493393 0.000245779)
(0.0104019 -0.0045959 0.000195216)
(0.00411704 -0.00173288 0.000204839)
(0.00686543 -0.00060254 0.000156095)
(0.00769274 -0.0049529 0.000901879)
(0.0023111 -0.000841536 -3.41594e-05)
(0.00180977 -0.000100392 -0.000106125)
(0.00271751 -0.000306936 3.03726e-05)
(0.00217001 -0.000799905 1.3367e-05)
(0.00293225 -6.31199e-05 -7.44495e-05)
(0.00132697 -7.07837e-05 -9.39433e-05)
(0.00191549 -0.000270558 -0.000206583)
(0.00280067 -0.000130724 1.60822e-05)
(0.00220019 0.000141388 1.25308e-05)
(0.00154291 -0.000485883 -2.75408e-06)
(0.00218891 -0.000298559 2.08745e-05)
(0.00202832 0.000355111 0.000107186)
(0.00227503 -1.84188e-05 2.14031e-05)
(0.00188272 -4.91165e-05 0.000116648)
(0.00050392 -3.55342e-05 4.18728e-05)
(0.000418299 -1.93832e-05 1.08889e-05)
(0.000431002 3.04372e-05 1.20639e-05)
(0.000716286 -4.43054e-07 1.14554e-05)
(0.000328652 4.94446e-06 1.44516e-06)
(0.000852215 2.92279e-05 -1.20071e-06)
(0.000883902 5.2907e-05 -1.88783e-06)
(0.00120957 4.1239e-05 -1.41746e-06)
(0.000659838 2.91689e-05 -4.99501e-06)
(0.000623193 4.91162e-05 -5.35037e-06)
(0.00112474 4.35639e-05 -5.70153e-06)