/*--------------------------------*- C++ -*----------------------------------*\
| =========                 |                                                 |
| \\      /  F ield         | OpenFOAM: The Open Source CFD Toolbox           |
|  \\    /   O peration     | Version:  5.0                                   |
|   \\  /    A nd           | Web:      www.OpenFOAM.org                      |
|    \\/     M anipulation  |                                                 |
\*---------------------------------------------------------------------------*/
FoamFile
{
    version     2.0;
    format      ascii;
    class       volScalarField;
    location    "1.7";
    object      alpha.water;
}
// * * * * * * * * * * * * * * * * * * * * * * * * * * * * * * * * * * * * * //

dimensions      [0 0 0 0 0 0 0];

internalField   nonuniform List<scalar> 
8409
(
1.00877
1.01675
1.03675
1.03593
1.01094
0.996125
-7.12568e-14
-3.63047e-19
6.99563e-17
7.44302e-18
4.29894e-20
8.82678e-24
5.17028e-28
1.63043e-31
6.65882e-35
2.79759e-38
1.14326e-41
4.84447e-45
2.00214e-48
8.06442e-52
3.68196e-55
1.50669e-58
6.43872e-62
2.3315e-65
1.08924e-68
8.50615e-72
3.64715e-75
8.61635e-79
1.32071e-81
4.7674e-85
4.48679e-88
3.80251e-92
1.27506e-94
5.12568e-97
1.05784e-100
1.00883e-103
6.89727e-107
1.39636e-109
9.90671e-114
8.85059e-118
5.36725e-120
5.94138e-123
5.68849e-126
1.95933e-128
1.86827e-132
5.49235e-135
1.13522e-138
5.28795e-143
2.00454e-144
7.40048e-146
1.03223
1.04465
1.01451
1.0215
1.01366
0.986529
-4.13017e-19
-2.65664e-18
2.30149e-22
4.10724e-19
8.68505e-21
1.04673e-23
1.6007e-27
1.8663e-31
6.37514e-35
2.63134e-38
1.10882e-41
4.66871e-45
1.98069e-48
7.92536e-52
3.30372e-55
1.37021e-58
6.76542e-62
3.04102e-65
1.32176e-68
7.66262e-72
2.2198e-75
9.26227e-79
7.05156e-82
3.76877e-85
1.3177e-88
2.89422e-91
3.79108e-95
7.50993e-98
2.20841e-101
3.71996e-104
1.52626e-107
9.25477e-112
3.66352e-113
2.36608e-116
3.03459e-120
4.19098e-123
3.22712e-127
6.34574e-131
1.99107e-133
6.47074e-137
2.81688e-139
5.34629e-143
2.80776e-145
3.35061e-146
1.05667
1.02004
0.978048
0.997281
1.03246
1.00531
0.0842451
-3.21413e-17
3.38626e-36
5.12323e-23
3.89126e-20
1.21289e-21
6.87427e-25
2.22602e-29
5.07053e-33
2.04098e-36
8.36972e-40
3.42756e-43
1.40513e-46
5.71001e-50
2.33308e-53
9.46512e-57
3.8458e-60
1.56317e-63
6.36949e-67
2.78054e-70
1.14965e-73
4.13957e-77
2.0825e-80
1.52273e-83
3.10188e-87
1.1301e-90
1.60817e-92
1.37969e-95
1.92278e-99
5.29876e-103
2.49926e-106
3.62818e-110
4.16307e-112
3.74431e-115
9.10821e-119
2.02058e-122
5.26596e-125
6.02324e-129
7.99876e-132
2.8772e-135
1.69179e-137
6.94076e-141
1.71055e-144
1.73606e-145
1.05411
0.953377
0.991723
1.02165
0.957257
1.00247
0.93572
-9.44153e-18
-1.23036e-19
4.83841e-17
3.88975e-19
1.66753e-21
5.06923e-24
8.48603e-28
7.1841e-32
2.49581e-35
1.02908e-38
4.29552e-42
1.76681e-45
7.27006e-49
3.00391e-52
1.23016e-55
5.47547e-59
2.27742e-62
1.05071e-65
3.88647e-69
1.45158e-72
1.33532e-75
5.04507e-79
1.19755e-82
2.26356e-85
3.06792e-88
5.51573e-92
1.21192e-95
3.22776e-98
6.65279e-102
2.33575e-105
2.88093e-108
1.79919e-110
9.86162e-114
1.09824e-117
3.63673e-120
4.43397e-124
7.68482e-127
8.40167e-130
3.27596e-133
8.05652e-137
3.64388e-140
2.99456e-143
3.04029e-145
1.02063
1.00291
0.940253
1.00909
0.997347
1.01462
1.0002
-1.21468e-15
-4.88673e-18
2.53326e-16
8.60129e-18
8.36871e-21
4.72657e-24
1.25959e-27
1.79866e-31
6.0921e-35
2.51866e-38
1.05727e-41
4.43303e-45
1.86307e-48
7.72162e-52
3.30015e-55
1.33953e-58
5.6155e-62
2.33031e-65
1.17794e-68
4.28512e-72
2.33586e-75
1.73437e-78
6.60629e-82
6.11647e-85
7.70475e-89
2.53951e-91
4.47174e-95
8.16237e-99
5.67637e-102
3.39727e-104
1.28748e-107
8.96957e-112
1.55054e-114
2.57947e-118
5.99183e-122
2.20122e-125
1.14547e-127
6.80041e-130
2.48156e-133
1.8531e-135
9.66193e-139
1.10492e-141
3.98458e-145
1.02028
1.06097
0.867701
1.00089
1.0068
0.989923
1.00064
-7.1395e-17
-5.10106e-18
2.01028e-16
7.08486e-18
7.36544e-21
3.75361e-24
9.35177e-28
1.42758e-31
4.93768e-35
2.05298e-38
8.76209e-42
3.64069e-45
1.56699e-48
6.46229e-52
2.66461e-55
1.10694e-58
5.05781e-62
1.92935e-65
2.5595e-68
4.29566e-72
1.6588e-75
2.3604e-78
3.57644e-81
4.67014e-84
3.6715e-88
1.18283e-91
5.5219e-95
1.06077e-97
2.62069e-101
1.26321e-104
2.30849e-107
2.1294e-111
4.48235e-115
1.26629e-116
4.69915e-119
1.96155e-122
2.43292e-126
5.8383e-130
7.47661e-133
9.45612e-137
2.56619e-140
2.07168e-143
2.74514e-145
1.0996
0.927926
0.735796
1.04813
0.956724
1.02484
1.00017
-6.61585e-18
-7.24403e-19
4.54418e-17
3.75963e-19
1.73157e-21
5.72076e-24
1.02256e-27
8.17697e-32
2.80067e-35
1.15402e-38
4.78117e-42
1.97866e-45
8.16639e-49
3.51462e-52
1.38913e-55
5.82469e-59
2.33562e-62
1.16866e-65
3.97282e-69
1.58657e-72
7.94205e-76
1.34597e-78
2.2579e-82
5.55888e-86
5.72584e-89
1.122e-92
1.09965e-95
3.47297e-99
5.23904e-102
1.71011e-105
6.07477e-108
4.84788e-111
5.83456e-114
5.3718e-118
4.56308e-121
1.63962e-124
1.7709e-128
1.98468e-130
4.19527e-134
3.67956e-136
1.15306e-139
6.50851e-144
3.8919e-145
1.01443
0.931885
1.01923
0.856694
1.01904
1.02847
0.75914
-1.40005e-16
-8.88933e-19
1.14724e-23
3.84166e-20
1.27253e-21
7.72214e-25
2.47066e-29
5.4894e-33
2.20746e-36
9.04693e-40
3.70321e-43
1.51491e-46
6.21548e-50
2.51572e-53
1.03247e-56
4.23595e-60
1.68125e-63
6.79029e-67
2.97665e-70
1.48104e-73
4.71527e-77
1.83289e-80
1.84955e-83
3.6477e-87
5.82242e-90
3.04956e-93
6.48963e-97
4.56068e-100
8.28461e-103
1.00421e-106
2.08716e-109
1.55857e-112
9.4614e-117
2.27596e-120
3.15894e-122
2.73495e-125
1.81654e-128
1.51667e-132
2.3244e-136
8.93859e-140
3.43686e-143
2.79776e-145
5.78423e-146
1.00398
0.990856
0.911342
1.02695
1.03952
0.987879
0.0236301
-5.81258e-18
-2.1472e-20
3.39957e-19
8.12284e-21
1.25896e-23
1.67713e-27
1.94284e-31
6.80303e-35
2.81087e-38
1.17885e-41
4.92228e-45
2.05736e-48
8.48808e-52
3.48684e-55
1.46012e-58
5.93029e-62
2.49382e-65
2.44527e-68
5.45744e-72
1.84533e-75
7.93969e-79
3.36983e-82
1.40581e-85
1.94122e-87
6.4452e-91
4.16832e-95
1.14001e-98
6.50504e-101
3.23063e-104
1.40781e-107
1.79965e-111
3.56162e-115
3.94832e-117
8.2681e-120
1.38516e-122
2.4377e-126
1.79416e-130
5.31433e-134
2.37679e-137
2.91241e-139
7.00835e-142
1.03409e-144
7.16241e-146
1.0431
1.01178
0.859876
0.88751
0.970916
1.01265
-3.49017e-15
-1.14849e-17
-5.04873e-32
7.63705e-18
6.93528e-20
9.54719e-24
5.01265e-28
1.61338e-31
6.63382e-35
2.80354e-38
1.13505e-41
4.67898e-45
1.97664e-48
9.35358e-52
3.32865e-55
1.38028e-58
5.5627e-62
2.29637e-65
1.18553e-68
4.08276e-72
3.48213e-75
1.08298e-78
6.38076e-81
8.02901e-85
6.20846e-88
1.35266e-90
9.05993e-94
4.14762e-97
1.7078e-101
8.07422e-104
1.78395e-106
1.37045e-110
9.71406e-113
1.17036e-116
8.52758e-121
2.36721e-124
6.23038e-126
1.76582e-129
2.65182e-132
2.41393e-135
1.45863e-138
5.83971e-142
4.96293e-145
5.24485e-146
1.00396
1.02864
1.03673
1.0314
0.997074
1
1.69155e-10
1.76506e-16
1.25928e-17
1.23744e-17
5.78354e-19
9.75211e-22
7.47803e-26
1.84372e-29
1.3527e-32
9.59586e-36
6.63705e-39
4.58302e-42
3.15934e-45
2.17282e-48
1.49267e-51
1.02335e-54
6.99906e-58
4.77981e-61
3.25726e-64
2.2148e-67
1.50411e-70
1.01925e-73
6.88986e-77
4.64916e-80
3.12953e-83
2.10157e-86
1.40981e-89
9.43938e-93
6.31081e-96
4.21155e-99
2.80276e-102
1.86023e-105
1.23302e-108
8.1638e-112
5.39403e-115
3.55784e-118
2.34183e-121
1.53792e-124
1.00848e-127
6.59573e-131
4.3059e-134
2.80777e-137
1.82665e-140
7.32292e-144
1.04514
1.02885
1.00477
1.02345
1.03292
0.997328
1.25892e-08
3.61141e-15
1.02933e-17
6.71221e-18
9.74006e-20
1.00399e-22
2.82412e-26
6.39133e-30
4.05416e-33
2.98309e-36
2.11596e-39
1.48569e-42
1.04204e-45
7.2904e-49
5.09323e-52
3.54911e-55
2.46764e-58
1.71291e-61
1.18608e-64
8.19204e-68
5.64714e-71
3.88355e-74
2.66332e-77
1.82318e-80
1.24559e-83
8.49032e-87
5.77975e-90
3.92702e-93
2.66114e-96
1.79965e-99
1.2144e-102
8.17458e-106
5.49439e-109
3.68217e-112
2.46155e-115
1.643e-118
1.09442e-121
7.27764e-125
4.83232e-128
3.20148e-131
2.1155e-134
1.39564e-137
9.18599e-141
3.856e-144
1.04824
1.0343
1.00682
1.04521
1.03698
1.02265
0.0913319
1.56404e-12
6.72634e-15
4.98805e-18
2.60545e-19
6.17957e-22
2.90558e-25
1.26642e-28
8.13503e-32
5.71635e-35
4.01847e-38
2.80333e-41
1.94932e-44
1.35379e-47
9.3869e-51
6.50014e-54
4.4905e-57
3.09887e-60
2.13244e-63
1.46518e-66
1.0054e-69
6.88299e-73
4.70361e-76
3.21618e-79
2.19239e-82
1.4926e-85
1.01521e-88
6.88825e-92
4.65823e-95
3.14895e-98
2.12528e-101
1.43145e-104
9.62771e-108
6.46088e-111
4.32576e-114
2.89222e-117
1.93375e-120
1.28924e-123
8.58448e-127
5.70759e-130
3.78604e-133
2.50714e-136
1.65683e-139
6.52141e-143
1.05908
1.01473
0.956945
1.00049
0.999279
0.998917
0.932561
1.70174e-12
1.35454e-16
1.94648e-16
7.6315e-18
2.26459e-20
7.62496e-24
1.45785e-27
9.25611e-31
6.92756e-34
4.98716e-37
3.55013e-40
2.52263e-43
1.78841e-46
1.26494e-49
8.92007e-53
6.26913e-56
4.39789e-59
3.07501e-62
2.14423e-65
1.49237e-68
1.03557e-71
7.17196e-75
4.95418e-78
3.41212e-81
2.3434e-84
1.60537e-87
1.0974e-90
7.48412e-94
5.09375e-97
3.45828e-100
2.34167e-103
1.58183e-106
1.066e-109
7.16517e-113
4.81396e-116
3.2241e-119
2.15289e-122
1.43373e-125
9.53536e-129
6.32577e-132
4.18817e-135
2.76592e-138
1.08227e-141
0.981117
1.0498
0.829029
0.971414
1.04595
1.02479
1.00052
2.19578e-10
1.31281e-15
1.84186e-15
1.1822e-16
3.1908e-19
3.19732e-23
6.32193e-27
4.47151e-30
3.23597e-33
2.29621e-36
1.61877e-39
1.13857e-42
7.99496e-46
5.60976e-49
3.92913e-52
2.74557e-55
1.91633e-58
1.33473e-61
9.27534e-65
6.43877e-68
4.46051e-71
3.08222e-74
2.12602e-77
1.46347e-80
1.00502e-83
6.89194e-87
4.71455e-90
3.21807e-93
2.1936e-96
1.49176e-99
1.01183e-102
6.8516e-106
4.63215e-109
3.12533e-112
2.10486e-115
1.41443e-118
9.48156e-122
6.34527e-125
4.23738e-128
2.82334e-131
1.87807e-134
1.24627e-137
4.89588e-141
1.00663
0.979744
0.976236
1.01445
1.00748
0.971663
1.00133
5.13868e-10
2.88995e-15
3.20731e-15
2.11037e-16
5.95501e-19
5.75845e-23
1.00893e-26
7.21128e-30
5.15963e-33
3.6116e-36
2.51812e-39
1.75252e-42
1.21746e-45
8.44655e-49
5.85229e-52
4.04735e-55
2.79505e-58
1.9265e-61
1.32514e-64
9.11136e-68
6.25296e-71
4.28195e-74
2.92807e-77
1.99682e-80
1.35888e-83
9.24213e-87
6.2752e-90
4.24968e-93
2.87413e-96
1.94001e-99
1.30693e-102
8.79359e-106
5.90534e-109
3.95836e-112
2.6492e-115
1.76895e-118
1.17793e-121
7.83225e-125
5.19806e-128
3.44199e-131
2.2775e-134
1.50475e-137
5.89165e-141
1
0.949367
0.836357
1.04728
0.931158
1.03281
1.00226
8.56942e-11
9.18965e-17
1.44734e-16
5.06162e-18
1.27074e-20
5.39464e-24
1.22163e-27
7.50467e-31
5.66039e-34
4.12481e-37
2.96185e-40
2.12111e-43
1.51489e-46
1.07899e-49
7.65935e-53
5.4144e-56
3.82082e-59
2.68975e-62
1.88329e-65
1.31703e-68
9.18261e-72
6.38378e-75
4.42781e-78
3.05766e-81
2.10985e-84
1.45252e-87
9.96637e-91
6.82171e-94
4.65629e-97
3.17093e-100
2.15381e-103
1.45976e-106
9.8596e-110
6.64956e-113
4.47595e-116
3.00315e-119
2.00904e-122
1.34136e-125
8.93413e-129
5.93834e-132
3.93814e-135
2.60877e-138
1.02712e-141
1.03462
1.02338
1.0243
0.964726
1.00629
1.02131
0.759908
4.30106e-12
9.11538e-15
7.97803e-18
2.36081e-19
5.56922e-22
2.27703e-25
1.08664e-28
7.1903e-32
5.07044e-35
3.56707e-38
2.49414e-41
1.73736e-44
1.20836e-47
8.39531e-51
5.82073e-54
4.0269e-57
2.78185e-60
1.91821e-63
1.31957e-66
9.06132e-70
6.20944e-73
4.24742e-76
2.903e-79
1.98084e-82
1.34915e-85
9.1737e-89
6.22176e-92
4.21074e-95
2.84702e-98
1.92101e-101
1.29385e-104
8.70367e-108
5.84153e-111
3.91145e-114
2.61754e-117
1.74653e-120
1.16337e-123
7.73874e-127
5.13883e-130
3.40286e-133
2.25101e-136
1.48798e-139
5.85952e-143
1.02313
1.01484
1.0345
1.0262
1.0099
0.967892
0.0286484
5.54948e-15
5.7928e-18
3.72569e-18
5.61245e-20
6.60965e-23
1.52799e-26
4.40803e-30
3.00082e-33
2.21258e-36
1.57861e-39
1.11651e-42
7.88417e-46
5.55405e-49
3.90557e-52
2.73908e-55
1.91597e-58
1.33766e-61
9.31939e-65
6.47466e-68
4.49045e-71
3.10732e-74
2.1444e-77
1.47747e-80
1.01567e-83
6.95789e-87
4.75941e-90
3.24777e-93
2.21083e-96
1.50224e-99
1.01858e-102
6.89217e-106
4.65482e-109
3.1371e-112
2.10813e-115
1.41421e-118
9.46773e-122
6.32071e-125
4.21424e-128
2.80429e-131
1.86154e-134
1.2335e-137
8.15234e-141
3.46395e-144
1.03266
1.01672
1.01054
0.739624
1.00638
1.00134
6.51879e-09
2.25882e-15
1.03461e-17
7.47184e-18
4.07986e-19
9.54996e-22
8.28348e-26
1.58752e-29
1.15098e-32
8.14769e-36
5.62291e-39
3.87321e-42
2.66478e-45
1.82937e-48
1.2539e-51
8.57551e-55
5.85337e-58
3.99106e-61
2.71557e-64
1.8438e-67
1.25038e-70
8.46371e-74
5.71681e-77
3.85685e-80
2.59647e-83
1.74343e-86
1.16849e-89
7.81947e-93
5.22303e-96
3.48499e-99
2.32039e-102
1.54153e-105
1.02242e-108
6.77134e-112
4.47628e-115
2.95475e-118
1.94673e-121
1.27972e-124
8.39924e-128
5.50245e-131
3.59802e-134
2.35059e-137
1.53169e-140
6.19382e-144
1.00414
1.00555
1.06606
0.986149
1.02138
0.999873
1.25925e-11
-2.21601e-19
2.21702e-17
3.78037e-18
2.63826e-20
6.21932e-24
3.47205e-28
1.06785e-31
4.36276e-35
1.88646e-38
7.46474e-42
3.10972e-45
1.33673e-48
7.30825e-52
2.55742e-55
1.09745e-58
4.73703e-62
1.69911e-65
1.56921e-68
1.50074e-71
6.12395e-75
8.73792e-79
1.30195e-81
2.76287e-85
8.74443e-88
4.12932e-92
6.2877e-95
2.62745e-97
9.05942e-101
5.5685e-104
1.05819e-106
3.55758e-110
1.28812e-114
4.16529e-116
1.48991e-119
6.06651e-124
2.08489e-126
1.56313e-130
5.76391e-133
4.53431e-135
1.00286e-138
4.83727e-142
6.35489e-145
5.07238e-146
1.05893
1.00543
1.04399
1.01845
1.01816
1.02545
1.00935e-08
-2.96258e-18
-1.00974e-31
5.38513e-19
9.95228e-21
1.09747e-23
1.76438e-27
1.98773e-31
6.75213e-35
2.781e-38
1.16158e-41
5.17527e-45
2.19908e-48
8.65121e-52
3.67667e-55
1.48607e-58
7.12256e-62
2.83756e-65
1.28105e-68
4.87235e-72
2.44328e-75
9.22055e-79
2.52758e-81
4.87031e-85
4.9722e-88
5.62178e-91
5.64728e-94
1.20603e-97
6.75477e-101
2.39388e-104
6.92832e-108
2.45002e-111
1.04182e-112
8.33516e-116
6.64198e-120
8.29619e-124
2.69908e-127
7.75913e-129
4.07282e-132
2.56046e-136
3.72709e-139
3.63451e-143
3.44574e-145
4.58502e-146
1.04373
1.03687
0.992457
1.03023
1.04726
1.03243
0.0896764
-3.84085e-17
-2.06795e-28
3.47151e-23
4.24495e-20
1.37441e-21
8.32302e-25
2.79131e-29
6.2189e-33
2.50307e-36
1.02915e-39
4.22886e-43
1.73956e-46
7.08206e-50
2.9103e-53
1.17966e-56
4.88079e-60
1.99977e-63
8.46913e-67
3.26304e-70
1.38685e-73
5.29458e-77
2.12929e-80
1.97287e-83
4.04088e-87
1.47132e-90
9.48819e-94
1.3489e-96
4.37343e-100
4.63753e-103
2.84984e-106
8.53371e-110
6.6031e-113
1.7207e-115
2.25737e-118
1.56817e-122
2.30654e-126
1.0678e-128
4.10086e-131
5.57401e-135
1.73513e-137
5.40437e-141
3.73458e-144
1.87259e-145
1.02598
1.02081
0.988573
0.989665
0.991623
0.997986
0.933855
7.07067e-13
-1.36135e-19
5.01403e-17
4.01647e-19
1.63081e-21
4.98795e-24
8.50333e-28
7.18004e-32
2.48801e-35
1.02593e-38
4.25429e-42
1.75681e-45
7.25567e-49
2.98767e-52
1.22518e-55
5.0875e-59
2.26392e-62
8.841e-66
3.63914e-69
1.42563e-72
2.03009e-75
1.12905e-78
1.53855e-82
1.94082e-85
1.44162e-88
3.22142e-92
9.93677e-96
1.10317e-98
2.35554e-102
2.85611e-105
3.64288e-108
3.00427e-112
5.10777e-114
1.74323e-117
2.4337e-120
2.54583e-123
2.53926e-127
1.39175e-130
3.82235e-133
2.03006e-136
1.16048e-140
2.6134e-144
2.72381e-145
0.995038
0.974711
1.00745
0.999706
0.99491
1.02039
1.00047
9.95461e-11
-5.2312e-18
2.61604e-16
8.85279e-18
8.47888e-21
4.62609e-24
1.23146e-27
1.76938e-31
5.98375e-35
2.47808e-38
1.03989e-41
4.38194e-45
1.82652e-48
7.58571e-52
3.16845e-55
1.32417e-58
5.61909e-62
2.35636e-65
1.43485e-68
4.04351e-72
1.60219e-75
6.57044e-79
3.8491e-82
4.48463e-85
6.25484e-89
2.64017e-91
4.5697e-95
7.15834e-98
8.24698e-102
2.55352e-104
1.23733e-107
7.46415e-110
1.76601e-113
1.54115e-117
2.57739e-119
9.32824e-123
4.53897e-126
1.2104e-129
2.22908e-133
3.01493e-135
1.50658e-138
1.05048e-141
1.46375e-144
1.03574
0.999906
0.917377
0.99006
0.794055
0.979053
1.00129
2.1527e-10
-4.96449e-18
2.05848e-16
7.24519e-18
7.60512e-21
4.25448e-24
1.10182e-27
1.61292e-31
5.50563e-35
2.2856e-38
9.61483e-42
4.03701e-45
1.8232e-48
7.12792e-52
3.16547e-55
1.27943e-58
5.14478e-62
2.15941e-65
8.81663e-69
3.75508e-72
1.48035e-75
6.02932e-79
1.92619e-81
3.57665e-84
1.70651e-87
1.70339e-91
1.19369e-94
1.56633e-98
4.75898e-101
1.66719e-104
2.52852e-107
2.30399e-111
3.95668e-113
1.62109e-116
8.63274e-121
1.44995e-122
4.76128e-126
8.02201e-130
9.60891e-134
4.98063e-136
7.12058e-139
9.25803e-143
2.78865e-145
0.999506
0.99402
0.988738
1.037
1.03128
1.03575
1.0018
3.95137e-11
-7.23855e-19
4.39105e-17
3.75159e-19
1.75452e-21
5.72573e-24
1.01083e-27
8.12957e-32
2.79102e-35
1.15006e-38
4.77229e-42
1.97373e-45
8.13231e-49
3.50051e-52
1.38952e-55
5.71891e-59
2.38613e-62
1.04768e-65
5.07852e-69
1.667e-72
7.17032e-76
1.1992e-78
1.96772e-82
5.32153e-86
2.06706e-89
8.308e-93
8.70098e-96
2.69678e-98
5.30332e-102
1.22974e-105
6.29478e-108
1.7739e-111
1.42551e-115
4.06578e-118
4.20556e-122
6.12725e-124
3.62547e-127
1.00293e-130
8.45651e-135
4.40589e-138
2.8513e-141
7.32898e-144
4.72199e-145
1.05086
0.931083
1.12343
1.084
0.992785
1.00989
0.760307
-1.30383e-16
-9.16584e-19
8.87145e-24
3.84299e-20
1.27484e-21
7.74753e-25
2.47386e-29
5.49028e-33
2.20813e-36
9.05036e-40
3.70394e-43
1.51718e-46
6.19069e-50
2.51705e-53
1.03353e-56
4.27109e-60
1.68105e-63
7.65325e-67
2.97809e-70
1.47246e-73
8.29302e-77
1.94628e-80
2.54892e-83
5.09432e-87
1.48387e-90
1.99968e-93
1.04273e-96
2.03003e-100
1.33544e-103
2.26408e-106
5.70436e-110
1.24219e-112
8.76979e-115
2.44671e-118
2.694e-121
3.53153e-125
3.6786e-129
3.48869e-132
5.28193e-136
2.20001e-139
9.19794e-143
2.88908e-145
7.80772e-146
1.04184
1.02248
0.998912
1.02187
1.04466
1
0.0287568
-6.24625e-18
-2.00097e-20
3.05028e-19
7.27731e-21
1.19569e-23
1.70257e-27
1.90183e-31
6.58405e-35
2.71814e-38
1.13904e-41
4.72294e-45
1.9701e-48
8.2023e-52
3.35081e-55
1.40882e-58
5.72587e-62
2.4117e-65
9.76174e-69
3.98241e-72
1.61611e-75
7.03903e-79
2.67691e-82
1.08364e-85
1.1436e-87
4.39522e-91
3.87e-94
2.12197e-97
8.11639e-101
4.8267e-104
2.01734e-107
1.29591e-110
1.03575e-114
7.06844e-117
1.18241e-120
1.18197e-124
1.1224e-126
2.15717e-129
2.28115e-132
1.57228e-136
1.97553e-139
1.26988e-142
1.10651e-144
6.38496e-146
1.02326
0.992095
1.05605
0.96804
0.882343
1.03244
7.71558e-09
-8.88881e-18
-6.09458e-25
5.49071e-18
5.74947e-20
8.15318e-24
3.88496e-28
1.24367e-31
5.10229e-35
2.14473e-38
8.76287e-42
3.7456e-45
1.52437e-48
6.15986e-52
2.61826e-55
1.10717e-58
4.27327e-62
1.79356e-65
1.03017e-68
8.29247e-72
1.69567e-75
7.08046e-79
1.35904e-81
1.05696e-84
6.7265e-89
1.66791e-90
3.83444e-94
2.55469e-98
8.27647e-102
1.56544e-103
3.87843e-107
3.4521e-111
9.92088e-113
3.12149e-116
1.69814e-119
3.73332e-122
6.80731e-126
7.62881e-130
1.40561e-133
2.90566e-135
1.86032e-138
9.42754e-142
6.45999e-145
6.19377e-146
-2.9351e-17
0.989629
9.53339e-05
0.994755
2.17729e-07
1
0.000862231
0.00179331
1.00946
0.517914
0.99273
0.00087593
1.01181
0.516822
0.788654
1.00037
1
1.01447
0.788326
1.00227
1
1
0.995356
1.00021
0.999002
1
0.98972
1.00004
1.00119
1.01669
1.00152
1.01751
1.00088
1.01561
1.00177
1.00199
1.01489
1.00085
0.976765
1.00199
1.02219
1.00165
1.00142
1.02434
1.00063
1.02518
1.00345
1.02938
1.00144
1.00001
0.976867
0.805546
1.02175
1.00004
0.993836
0.804291
0.670659
1.02084
0.0292823
0.956185
0.669954
1.02286
0.0363075
0.00657416
0.999975
-1.44862e-20
1.00884
0.0106674
1
3.11544e-07
1.42118e-07
1.00542
0.00107562
0.999926
1.72875e-07
1.01922
0.000855618
0.00401202
1.00972
0.521475
1.02356
0.00353314
1.01385
0.514944
0.787603
1.00332
1.00013
1.0312
0.789062
1.00594
1
1
0.993621
1.00023
0.997342
1
0.992932
0.99993
1.00138
1.01378
1.0025
1.02294
1.0008
1.01041
1.00171
1.00291
1.02978
1.00192
0.965568
1.00205
1.04657
1.00142
1.00331
1.0244
1.00213
1.03775
1.00283
1.02172
1.00164
1.00004
0.886867
0.795683
1.01108
1.00004
1
0.808567
0.669816
1.0325
0.0404451
0.989114
0.668305
1.0277
0.0419716
0.0121558
1.00085
4.21002e-07
1.01758
0.017162
1
5.47655e-07
1.36521e-08
1.02256
0.00073137
0.98906
-4.16391e-17
1.02898
0.000196086
0.00278384
1.01454
0.514883
1.02023
0.00073157
1.01827
0.515721
0.789052
1.00626
1.00013
1.0327
0.790822
1.0075
1.00001
1
0.983227
1.0002
1.00037
1
0.999443
1.00015
1.00121
1.01063
1.00247
1.00486
1.00121
1.00226
1.00149
1.00285
1.04476
1.00161
0.993189
1.00193
1.04302
1.00076
1.00307
1.02711
1.002
1.01294
1.00193
1.01842
1.00057
1.00003
0.996749
0.804646
0.994574
1.00001
0.984272
0.812114
0.66849
1.00947
0.039766
1.00201
0.668385
1.00113
0.033493
0.0166554
0.99968
3.72116e-07
1.03436
0.00719964
0.999292
-7.38389e-19
0.978182
1.00205
0.904659
1.01664
0.963304
1.00857
0.919264
0.881281
0.905964
0.97244
0.99618
0.975961
0.881303
0.902118
-1.58564e-16
-7.10379e-24
-4.40278e-17
2.01137e-10
4.70144e-14
2.0411e-10
4.70633e-14
0.951393
1.02464
1.03179
1.02206
0.947544
1.0271
1.03223
0.967151
0.992117
0.953645
0.989538
0.992712
0.941046
0.966917
-3.198e-19
0.00517006
-1.53986e-19
8.5285e-09
1.49761e-12
0.0107227
1.49761e-12
0.94848
0.976893
1.00276
1.03186
0.977637
0.975109
1.01094
0.997553
1.00215
0.987566
1.00622
1.00409
0.986997
0.997486
-9.50576e-17
0.782062
-6.05221e-17
0.0907204
5.83542e-09
0.783222
3.03529e-09
1.0128
0.953579
0.994488
0.965022
0.996878
0.98005
1.01192
0.918871
0.979898
0.946032
1.00111
0.982343
0.954041
0.907528
-1.28614e-16
1.00007
-9.92712e-15
0.933659
5.44766e-10
1.00035
1.66854e-08
0.958672
1.04029
0.992577
1.05838
0.986537
1.05342
0.995305
1.01152
1.00902
1.03509
1.01601
1.00865
1.03433
1.01137
-1.0701e-14
1.0003
-2.36707e-16
1.00066
7.87413e-08
1.00063
1.55617e-07
0.991125
0.986115
0.996847
1.01216
0.961414
0.940745
0.993678
0.999084
0.995821
0.949332
0.980311
0.995276
0.961949
1.00002
-1.00225e-14
1.0001
-1.77493e-15
1.00161
1.79646e-07
1.00033
1.09047e-07
1.00963
1.03988
1.03508
0.965609
1.01614
1.01435
1.04396
1.01214
1.01783
1.02088
1.02434
1.01796
1.02145
1.01158
-1.19082e-15
0.918964
-9.81175e-18
1.00226
2.72253e-08
0.918483
1.46973e-09
1.01788
0.95964
0.948149
0.944389
1.03985
0.981683
0.99942
0.992266
1.00618
1.00859
1.04633
1.0049
0.987307
0.99306
-8.3607e-16
0.104824
-1.2722e-16
0.760414
3.9799e-09
0.114262
6.79671e-09
0.886771
0.990786
1.05208
0.99354
0.909263
0.947099
1.04084
0.999613
0.999952
0.995087
0.987175
0.999588
0.991143
0.999725
-3.61849e-17
-2.72058e-16
-2.16756e-17
0.0280246
1.76462e-12
2.24524e-07
2.43339e-12
0.937975
1.02093
0.993395
1.01514
0.992412
0.987546
1
0.991938
1.00567
1.00638
1.01168
1.00763
1.00608
0.992499
-8.06679e-17
-2.95886e-14
-1.30297e-17
3.94756e-09
6.07711e-13
3.60869e-10
6.38935e-13
1
1.02114
0.955872
1.01189
0.993347
1.01386
0.992852
0.799603
0.878245
0.995673
1
0.831983
0.999737
0.875766
3.61867e-13
6.94269e-10
2.65759e-13
2.04782e-10
3.11079e-13
6.1926e-10
2.65759e-13
0.968142
1.02326
1.03508
1.00516
0.999928
1.0517
1.03474
0.962066
0.995113
0.967201
1.01526
0.963283
0.996163
0.954676
5.68237e-12
0.0094356
6.77276e-12
1.2369e-08
5.68238e-12
0.0113879
6.23352e-12
0.968543
0.995138
1.00746
1.05041
0.968415
0.97141
1.00724
1
1.00849
0.986534
1.02731
0.998028
1.00907
0.998846
9.4607e-09
0.782684
8.06981e-09
0.0901845
1.22425e-08
0.782736
8.06981e-09
0.99994
1
1.01919
0.967638
0.974294
1.00951
0.995912
0.916613
0.9963
0.967464
0.998004
0.912915
0.995864
0.974563
1.1772e-09
1.00035
2.86844e-08
0.933397
1.24807e-09
1.0003
2.89102e-08
1.02824
1.02026
0.988721
1.00518
1.01166
0.875501
0.992312
1.01208
1.00985
1.03464
1.02739
1.01038
1.00997
1.03055
1.24616e-07
1.00138
2.48637e-07
1.0007
1.2482e-07
1.00072
2.49422e-07
0.943806
0.996856
1.01854
0.876796
0.945945
1
1.16423
1
0.998578
0.988281
0.990552
0.999831
0.997544
0.956342
2.84037e-07
1.00068
1.74628e-07
1.00167
2.83933e-07
1.00031
1.74536e-07
1.04634
1.00497
1.02656
0.997707
1.02082
0.969297
1.01568
1.00881
1.01581
1.02101
1.04614
1.00727
1.01427
1.02322
4.64893e-08
0.917302
2.78378e-09
1.00158
4.58435e-08
0.91797
2.72064e-09
1.06242
1
1
0.945883
0.985959
0.913595
1.01901
0.991968
1.00236
0.930878
1.01358
0.995846
1.0016
0.981679
1.10746e-08
0.119697
2.0001e-08
0.76031
1.10746e-08
0.113025
1.9978e-08
0.875353
0.999309
1.03469
1.03806
0.936327
1.03334
0.942212
0.999416
0.996764
0.948607
0.968521
0.99974
0.999181
0.903915
7.52591e-12
3.03633e-07
1.22099e-11
0.0292688
7.52591e-12
2.9374e-07
1.25103e-11
1.02954
1.00336
1.08925
0.786452
0.904755
1.00134
1.05894
0.998373
1.00939
1.00378
0.959259
0.998055
1
1.00179
3.2654e-12
6.28782e-10
5.31859e-12
1.01665e-08
3.26548e-12
8.17123e-10
5.0349e-12
0.962558
1.02076
1
1.02156
0.950223
1.02131
1.00238
0.808812
0.836952
0.999956
0.999899
0.815784
0.999973
0.846502
7.48347e-14
3.99472e-10
4.96671e-14
-1.30065e-20
-1.8993e-17
-3.73058e-19
-2.70679e-17
1.00285
1.06438
1.03804
1.0228
1.00727
1.0532
1.03694
0.976796
1
0.954038
1.02759
0.976113
1
0.953868
1.78155e-12
0.00992592
1.78155e-12
-5.99435e-18
-7.10589e-19
0.00512199
-3.11753e-19
0.98033
0.976823
1.01439
1.04938
1.0038
0.987983
1.0128
1.00138
1.00956
1.01568
1.03239
1.00101
1.01119
1.01728
5.82017e-09
0.782701
3.03058e-09
0.0832984
-1.02495e-16
0.781621
-7.04489e-17
0.965979
1.01981
0.979866
0.993463
0.912721
1.07786
0.982789
0.998893
0.99587
0.991178
0.999319
0.963759
0.998215
0.997428
6.99557e-10
1.00027
1.68078e-08
0.936512
-1.62343e-16
1.00004
-7.39917e-15
1.02329
0.795666
0.915308
1.00807
0.962787
0.798012
0.940057
0.998763
1.01024
1
1.01174
1.00149
1.00927
0.960566
7.86255e-08
1.00141
1.5897e-07
1.0002
-9.02393e-15
1.00036
-3.36363e-16
0.943374
1.00035
1.04652
0.875623
0.903115
0.985231
1.06103
1
1.00001
0.99276
0.998143
0.998857
0.999861
0.981139
1.77883e-07
1.00077
1.09539e-07
1.00064
-8.88872e-15
1.00007
-1.97554e-15
1.04521
0.98344
1.01163
1.03059
1.02298
0.968304
0.990059
1.00317
1.00799
0.999846
1.03362
1.01198
1.00633
0.986707
2.75093e-08
0.917191
1.47039e-09
1.00023
-1.20867e-15
0.918515
-1.21854e-17
0.982902
1.07187
0.962273
1.01478
0.95729
1.06029
1.01186
0.989595
1.00147
0.972119
1.04762
0.983572
1.00104
0.964451
3.96062e-09
0.114492
6.79885e-09
0.759497
-7.78482e-16
0.10335
-1.79549e-16
1.01379
1.02697
1.06502
1.02481
0.950998
0.997881
1.0144
0.999322
0.99818
0.9226
1.13407
0.996312
1
0.996219
1.81442e-12
2.19274e-07
2.58296e-12
0.0244788
-2.30391e-17
-5.65094e-16
-6.29574e-18
1.04635
1.04323
0.973552
1.00386
0.982025
1.0287
0.954885
1.00093
1.00811
1.01659
1.03244
1.00079
1.00583
1.03058
1.12669e-12
4.83905e-10
1.43808e-12
-7.66794e-17
-1.08042e-16
-2.66849e-19
-3.30759e-17
0.137773
0.164233
-3.92998e-13
5.53503e-08
5.53484e-08
0.13713
0.170339
0.966317
0.987145
0.999818
0.99253
0.989734
0.99914
0.964749
0.30343
0
0.436307
0.000141287
4.94143e-09
0.436995
0.305143
0.881136
0.995608
0.906176
0.973945
0.970282
0.869191
0.909749
0.135385
2.17736e-07
0.168405
2.17738e-07
2.17736e-07
0.150451
0.156492
0.971163
0.993378
0.992053
1
0.987106
0.999097
0.977817
0.296853
0.000250502
2.1823e-07
0.435962
2.1823e-07
0.437619
0.288536
0.593371
0.48715
0.0346147
0.00297794
0.487631
0.0376716
0.592635
0.984657
0.98692
0.998863
1.01093
0.99087
0.999184
0.983526
0.825034
0.180002
0.998073
0.521641
0.180829
0.996217
0.824653
0.965933
0.9874
0.987575
0.948353
0.989104
0.940905
0.96505
0.596951
0.000683723
0.500077
0.0353802
0.494319
0.0351481
0.601345
0.984728
1.00897
0.993882
0.999579
0.992973
1.00002
0.988804
0.823832
0.519407
0.193785
0.998541
0.184661
0.997051
0.814458
1
1.00035
0.997733
0.788418
1.00056
0.996555
1.00006
1.00004
0.953978
1.00001
1.00042
0.954914
1.00004
1.00016
1.0007
1.00016
1
1.00001
1.00055
0.999997
1.00094
0.997706
1.00622
1.00818
0.988096
1.00623
0.988252
0.997069
1.00006
0.787278
1.00082
0.994571
1.00092
0.995173
1.00001
1.00022
1.0028
0.955817
1.00023
0.95555
1.00039
1.00031
1.00085
1.00013
1.00061
0.999995
1.00085
0.999847
1.00066
0.978728
0.994075
1
1
0.992833
1
0.976946
0.933725
0.901174
0.996755
0.993754
0.902747
0.99925
0.939011
0.996381
1
0.99998
1.00015
1
1
0.996141
0.928811
1
0.994311
0.955564
0.990145
0.952958
0.918612
0.981801
1
0.99367
1
0.992808
1
0.987182
0.937103
0.993398
0.904107
1
0.903616
0.997141
0.931669
0.995047
1.00012
1
0.999907
1
0.999576
0.997339
1.00632
1.0054
1.00187
1.00092
1.00568
1.00184
1.00666
1.01143
1.01138
1.00688
1.01668
1.00882
1.00533
1.00807
1.00379
1.00133
1.00351
1.00137
1.00126
1.00331
1.00417
1.01194
1.01733
1.00873
1.03325
1.00904
1.03469
1.01222
1.00637
1.0013
1.00546
1.0019
1.00581
1.00238
1.00601
1.00947
1.01816
1.02625
1.00607
1.0155
1.00748
1.00892
1.0038
1.00221
1.00161
1.00363
1.00197
1.00437
1.00359
1.00141
1.00254
1.00083
1.00212
1.00252
1.00075
1.00183
1.00383
1.00702
1.01135
1.01513
1.00594
1.01135
1.00394
1.00256
1.0004
1.00305
1.00069
1.00038
1.0033
1.00203
0.999495
0.972506
0.99877
0.989467
0.996936
0.982676
0.998709
1.00167
1.00283
1.00134
1.00092
1.00208
1.00169
1.00131
1.00352
1.01968
1.00385
1.01121
1.00671
1.01172
1.00312
1.00243
1.00119
1.00065
1.00338
1.00097
1.00341
1.00236
1.00561
1.00581
1.00204
1.00051
1.00593
1.00236
1.00544
1.01523
1.02496
1.01123
1.02684
1.0244
1.01161
1.01305
1.00656
1.00232
1.00227
1.00101
1.00313
1.00215
1.00636
1.01032
1.02562
1.01751
1.01772
1.01861
1.02035
1.00832
1.00576
1.00127
1.00625
1.00281
1.0057
1.00314
1.00473
1.01195
1.02942
1.01316
1.01049
1.02213
1.01055
1.00652
1.0064
1.00188
1.00347
1.00243
1.00374
1.0024
1.00499
0.999981
1.00036
1
1.00002
1.00035
1.00001
0.999939
0.971853
0.719961
0.987788
0.911973
0.801147
0.981312
0.981049
0.999973
0.8688
0.998756
0.802589
0.870239
0.998851
1
0.991954
1.05443
1.00131
0.9122
1.00179
1.00074
0.997397
1.00006
1.00016
1.00029
1
1.00041
1.00043
1
0.962344
0.981314
0.811629
0.98303
0.809078
0.980989
0.978826
1
0.803067
0.873337
0.997661
0.870044
0.99857
0.999993
0.997393
1
0.354676
0.670555
0.999706
0.357735
0.998543
1
1.00171
1.00028
1.01758
1
1.00038
1.0004
0.874625
0.137636
0.683496
0.0314557
0.141806
0.684037
0.876974
0.999974
0.968421
0.999689
0.965117
0.999777
0.97123
0.999769
0.997766
0.67017
0.999755
0.358879
0.999689
0.357764
0.997819
1
1.04883
0.952882
1.00003
0.991705
1.00006
0.998709
0.870361
0.0340707
0.150567
0.681922
0.145981
0.683199
0.86759
0.298863
0.608381
-1.67859e-18
0.0100547
0.604018
1.20303e-06
0.296727
0.949092
1
0.856828
0.999998
1
0.954452
0.857422
0.255453
-2.64716e-18
0.133888
4.64668e-08
4.64669e-08
0.246913
0.134881
0.994782
1.01221
1.00669
1.00564
1.00671
1.00627
0.995979
0.29589
0.00910987
0.604516
3.38333e-06
0.609024
3.38333e-06
0.297001
0.955549
0.999926
1
0.860922
1
0.959333
0.859598
0.247759
3.11547e-07