/*--------------------------------*- C++ -*----------------------------------*\
| =========                 |                                                 |
| \\      /  F ield         | OpenFOAM: The Open Source CFD Toolbox           |
|  \\    /   O peration     | Version:  5.0                                   |
|   \\  /    A nd           | Web:      www.OpenFOAM.org                      |
|    \\/     M anipulation  |                                                 |
\*---------------------------------------------------------------------------*/
FoamFile
{
    version     2.0;
    format      ascii;
    class       surfaceScalarField;
    location    "1.7";
    object      alphaPhi10;
}
// * * * * * * * * * * * * * * * * * * * * * * * * * * * * * * * * * * * * * //

dimensions      [0 3 -1 0 0 0 0];

internalField   nonuniform List<scalar> 
25159
(
-2.70044e-09
-1.84485e-09
7.702e-08
-1.71579e-09
-2.45041e-09
-1.42729e-09
-1.51864e-09
-1.36459e-09
-4.38145e-10
1.18514e-10
-3.84434e-09
-8.07965e-09
-7.27047e-09
1.17187e-08
-5.02685e-09
-6.07224e-09
-1.35273e-08
-1.67711e-08
-1.55265e-08
7.82655e-09
-1.19334e-08
6.43778e-09
-1.38711e-09
7.74978e-09
-9.15992e-09
9.32922e-09
1.68557e-08
-4.57287e-09
1.98814e-10
-1.96687e-10
6.75618e-09
-1.05835e-15
2.71563e-20
-9.48355e-18
2.43009e-18
3.43404e-16
-1.63177e-15
2.3479e-15
1.79953e-24
-7.54211e-23
-1.24406e-23
-3.46406e-22
4.32481e-21
-1.06306e-20
-4.649e-21
1.39319e-26
2.4948e-27
2.33049e-27
1.15933e-27
-5.85396e-28
1.91816e-29
3.88078e-31
-2.48021e-31
1.79842e-31
1.95611e-35
8.6266e-35
3.20366e-34
5.45866e-39
4.71495e-39
2.84794e-38
2.21616e-42
2.09498e-42
-6.29673e-41
9.14694e-46
6.04105e-46
-1.9623e-44
3.77012e-49
1.25664e-49
-3.49495e-47
1.54741e-52
3.2596e-53
2.20532e-51
6.33996e-56
-1.40711e-56
1.64621e-53
2.58403e-59
-2.58343e-60
-2.96164e-56
1.05212e-62
-1.26673e-63
-4.87954e-61
4.2966e-66
-5.65043e-67
2.62264e-63
1.73837e-69
1.52453e-70
7.44731e-66
6.99553e-73
2.53059e-73
-4.72523e-70
2.78276e-76
-1.2515e-77
4.48471e-73
1.18362e-79
7.23779e-81
1.30159e-75
5.50645e-83
3.2728e-83
-1.88466e-78
2.18409e-86
5.55604e-87
-7.53517e-82
9.5296e-90
-3.29821e-91
-3.7699e-85
5.52939e-93
-7.55553e-94
1.96192e-88
2.43616e-96
-1.50206e-97
-3.67871e-92
1.25424e-99
5.89004e-100
-1.20344e-94
5.07101e-103
7.34109e-104
-4.49677e-99
1.0977e-105
4.00151e-107
6.15012e-101
2.50137e-108
-2.15159e-109
-1.38616e-104
3.96724e-112
4.27031e-113
-5.09194e-107
3.40212e-115
1.52735e-117
-1.92006e-110
3.37067e-118
1.37718e-119
-1.2728e-113
4.48063e-121
7.50456e-122
-3.70608e-117
4.65742e-125
-6.70943e-125
4.44743e-122
2.2308e-128
-2.99031e-129
9.61353e-127
3.21025e-131
2.90854e-132
9.53953e-127
2.12933e-134
4.59632e-136
-8.1909e-130
3.94076e-137
6.68438e-138
-1.78987e-134
9.46754e-140
3.36259e-140
-6.22715e-136
1.38505e-143
-4.46906e-146
-6.27062e-140
2.23759e-146
2.08778e-147
-1.04537e-142
3.15858e-150
6.70618e-151
-3.34492e-145
5.96703e-153
-4.73147e-156
-8.18229e-150
2.52454e-153
1.72736e-156
-3.70269e-153
2.69821e-158
-1.24661e-157
3.5943e-09
-6.16205e-09
1.45565e-09
6.07503e-08
-4.81382e-09
-2.31425e-08
4.53923e-08
7.0516e-08
-3.65133e-09
-2.21041e-08
-5.41794e-08
-5.09874e-09
3.5282e-09
-1.56579e-08
-2.92177e-08
-3.45476e-08
-7.40402e-08
-4.545e-08
-4.58342e-08
-4.35388e-08
-4.37882e-08
3.03719e-08
3.05973e-08
3.27372e-08
-5.44032e-08
-1.85096e-08
-1.91678e-09
-1.76231e-09
-2.84935e-09
5.39598e-10
4.54678e-09
-2.51145e-14
1.83742e-15
9.24453e-18
-3.91684e-16
-3.80221e-13
-9.32526e-14
2.98778e-13
-3.20183e-15
-1.30786e-14
-1.94384e-15
-1.78319e-15
8.67329e-22
-1.39385e-18
2.27795e-21
-5.96534e-20
1.31048e-19
2.25089e-19
1.40885e-18
-2.72328e-26
-1.54754e-22
6.04271e-26
4.49111e-28
-3.0553e-26
3.93119e-30
2.74634e-31
-9.06403e-30
2.95219e-32
3.12533e-35
2.20306e-32
6.53765e-35
4.60016e-39
2.20567e-36
4.24e-38
1.53362e-42
1.38192e-40
7.86691e-42
6.40039e-46
3.95799e-44
7.13057e-46
2.74005e-49
1.7925e-47
-2.18918e-47
1.15167e-52
1.95302e-51
3.27195e-51
4.83021e-56
1.01623e-54
-1.46251e-53
2.02118e-59
3.30829e-58
1.02431e-57
8.3848e-63
3.95686e-62
-1.6383e-60
3.47826e-66
2.19627e-66
-3.18581e-63
1.44975e-69
1.93348e-69
-6.73331e-67
6.12999e-73
-7.87077e-73
1.09585e-69
2.57068e-76
-7.61373e-76
-6.96203e-73
1.10366e-79
-2.05459e-80
1.45856e-77
4.78411e-83
1.0203e-82
1.30945e-79
1.84422e-86
-9.0907e-88
1.44135e-83
8.11944e-90
-3.34036e-90
-4.68214e-86
4.58453e-93
2.3014e-93
-2.59216e-88
1.69297e-96
1.5741e-96
3.24891e-92
1.07169e-99
8.04978e-101
-1.50591e-96
1.03575e-102
1.66242e-103
-2.62215e-98
2.30401e-106
-3.54894e-105
-1.00773e-101
1.43038e-109
-2.74667e-108
1.28247e-103
9.694e-113
8.32576e-114
7.83449e-108
1.15443e-115
1.29589e-115
-8.98953e-112
3.61671e-119
-6.64888e-120
-3.05792e-114
6.06153e-122
1.09478e-123
-9.09806e-121
8.02752e-124
-2.46353e-125
-3.00208e-120
4.60419e-128
-1.25409e-128
1.30139e-123
1.6735e-131
5.98302e-132
-7.99243e-128
1.22651e-134
6.37152e-135
-5.10549e-130
2.28814e-138
-5.67421e-139
7.86339e-136
9.28164e-142
-3.28752e-143
4.18343e-139
4.90581e-145
6.08388e-145
7.03473e-139
2.48195e-148
-5.33905e-149
3.02194e-144
1.48493e-150
1.18984e-150
-1.15418e-145
-1.81763e-153
-9.83754e-154
-4.69183e-149
5.20568e-154
5.56591e-157
-2.57292e-152
5.6305e-158
-8.44169e-156
-4.75163e-09
3.03816e-08
-1.72757e-07
1.38334e-07
2.9184e-08
1.15697e-07
1.27915e-08
-2.99822e-09
2.14345e-08
2.37699e-10
1.60542e-10
-1.43724e-10
-3.60993e-10
-6.16373e-08
-1.77617e-08
-2.56294e-08
9.20241e-08
-1.90796e-08
1.77657e-08
1.54798e-08
9.1196e-09
2.09993e-09
3.78086e-08
-1.72003e-08
-1.89843e-08
-3.22151e-09
-3.1084e-09
-2.12787e-08
-3.56182e-10
7.64269e-09
-2.08203e-07
-3.68853e-08
1.99394e-11
2.50165e-09
3.08174e-09
7.3155e-09
-1.03493e-08
-3.71313e-11
9.96373e-14
1.43544e-09
7.82529e-12
1.43504e-09
7.39879e-20
5.09117e-19
-3.40673e-19
5.38747e-19
2.83818e-18
7.73508e-19
-1.13837e-17
4.75586e-19
6.55245e-18
5.27754e-19
1.77479e-25
-9.18564e-22
-5.97224e-23
8.4947e-28
-1.58286e-25
-7.66478e-27
3.588e-29
-4.63575e-29
-2.95119e-30
3.54202e-32
-1.13196e-32
-1.14484e-33
1.32533e-36
1.58295e-34
-4.78028e-37
2.51463e-40
1.38662e-38
-1.16746e-40
9.87016e-44
1.91745e-42
-3.02854e-44
3.99127e-47
4.5313e-46
-5.36283e-47
1.61011e-50
1.10244e-49
5.38339e-51
6.4771e-54
1.46824e-53
-2.72602e-52
2.5979e-57
2.24892e-57
1.26108e-55
1.0373e-60
-1.51252e-60
-1.39012e-59
4.12995e-64
-5.96218e-64
-2.65067e-62
1.63893e-67
-1.02903e-67
-3.09471e-66
6.47822e-71
1.22288e-70
-2.01207e-69
2.57198e-74
6.95105e-75
-7.05618e-72
9.99653e-78
6.03443e-78
1.82537e-74
4.01823e-81
1.31823e-81
-4.1351e-78
1.54226e-84
-5.86909e-85
-2.75705e-81
5.9662e-88
-1.91618e-88
-1.4786e-86
2.89998e-91
-5.67684e-91
-1.44938e-88
1.25034e-94
-1.45735e-94
3.23473e-91
4.26416e-98
-5.93702e-98
4.32431e-96
3.96804e-101
-3.53031e-100
-4.10486e-99
2.02601e-103
1.36466e-104
-7.49763e-100
3.458e-107
3.6984e-108
-1.39836e-102
1.18557e-110
-2.85158e-111
1.52408e-106
1.60487e-114
-2.59332e-114
1.16325e-109
3.0644e-119
-9.45216e-119
-2.69693e-113
1.00079e-120
1.51813e-121
-5.40382e-117
3.94398e-123
1.34055e-124
-3.58275e-119
8.43339e-127
5.10792e-126
1.47876e-123
1.98906e-130
1.25929e-130
7.72482e-126
4.98334e-133
3.90044e-133
-2.9772e-129
1.57249e-136
-1.39791e-135
-3.79032e-132
2.08039e-140
-6.57502e-139
2.84919e-136
2.92152e-143
3.05414e-143
1.57472e-137
1.93761e-146
1.83245e-145
1.12961e-142
1.19963e-148
4.58199e-150
9.0178e-145
4.14972e-153
5.11494e-153
-9.77452e-148
2.78743e-153
-2.15415e-157
8.08506e-151
-2.63636e-157
1.10472e-154
-9.70534e-10
4.66724e-09
1.56142e-08
9.99662e-09
-8.68666e-09
-8.23548e-08
-3.45053e-08
3.7925e-08
7.00167e-09
-5.40332e-08
1.50567e-07
1.30407e-08
3.92274e-08
2.41638e-09
4.97972e-09
1.21681e-08
6.53424e-08
-4.62531e-09
-8.44055e-09
-3.31926e-08
1.05368e-08
4.33382e-08
7.57869e-09
4.63056e-10
-1.97554e-10
-5.01437e-10
-3.90193e-10
6.16744e-09
5.42228e-09
6.36009e-09
-2.23231e-08
-1.25769e-07
-5.38624e-08
1.75129e-07
2.47084e-09
-1.83718e-08
3.56591e-09
-1.45877e-09
1.44296e-08
3.71862e-11
-4.19307e-11
1.12919e-10
-1.3818e-10
9.04237e-11
9.32766e-17
5.05569e-19
-1.96558e-08
-1.24286e-18
9.33588e-17
9.33213e-17
9.25076e-17
3.32111e-25
2.00398e-22
-3.4287e-22
2.70542e-19
2.6931e-19
2.70693e-19
2.64892e-19
2.18401e-26
8.80543e-26
1.35656e-26
6.14321e-29
5.624e-28
2.59666e-30
3.17353e-32
7.95873e-32
2.81527e-33
2.64288e-35
-1.62895e-34
1.64808e-36
2.08217e-39
-1.09685e-38
2.22715e-40
6.4623e-43
-2.34898e-42
-1.62199e-42
2.70527e-46
-6.15239e-46
-1.59631e-46
1.14252e-49
-1.77759e-49
-5.38191e-50
4.79912e-53
-4.43416e-53
-1.21935e-51
2.00457e-56
-1.81495e-56
1.23562e-55
8.32706e-60
-1.16896e-59
6.02396e-59
3.44229e-63
-2.5385e-63
-8.96136e-62
1.42122e-66
-3.32726e-67
2.603e-65
5.8752e-70
-9.74441e-71
-3.83824e-68
2.4219e-73
7.81203e-74
8.07202e-71
9.968e-77
1.78174e-77
4.71973e-74
3.9932e-80
-4.29464e-80
-2.13744e-76
1.66208e-83
-2.00379e-84
-1.4828e-80
8.15673e-87
1.36139e-87
-4.41136e-83
3.21158e-90
-3.97007e-90
-1.07305e-86
1.41494e-93
3.70199e-94
2.32497e-90
1.3325e-96
1.31136e-97
-1.03347e-92
9.06637e-100
-1.69055e-101
-1.22076e-95
2.01624e-103
-5.12965e-103
-2.94742e-98
1.23217e-106
6.9991e-108
-1.43498e-102
1.21978e-109
6.81516e-111
-2.36316e-105
3.27163e-113
1.06622e-114
-1.45834e-108
1.41838e-116
-2.7746e-117
2.39544e-112
3.41822e-119
-1.49584e-120
-3.43793e-115
1.35962e-121
2.6777e-122
-6.90854e-118
1.98718e-125
9.24413e-126
2.46479e-123
9.6085e-129
8.79467e-131
2.87996e-124
1.58476e-131
-6.04659e-133
-4.42646e-128
2.77167e-135
-6.90472e-137
4.01938e-134
3.52141e-138
-6.15792e-140
2.11644e-134
2.42815e-141
3.30552e-142
-1.99532e-137
7.42002e-145
5.91634e-146
1.72204e-142
3.32955e-148
-4.42253e-148
-5.27065e-143
1.98943e-151
1.58228e-151
1.19878e-147
1.81782e-153
-9.13887e-155
-8.05447e-151
-4.07117e-157
2.64987e-153
-2.63004e-08
-6.95565e-09
-9.1678e-09
1.31669e-08
-5.60783e-08
-1.7225e-08
-2.62e-08
-3.1489e-08
3.28638e-07
-1.95997e-08
4.99144e-07
1.78731e-07
-6.95626e-08
9.00431e-10
-6.0084e-09
1.40994e-07
-1.07316e-08
3.14661e-08
1.53301e-09
-2.44266e-08
-2.04668e-08
-3.19e-08
-1.92715e-08
-1.66773e-08
4.31277e-09
-4.21516e-09
8.18565e-09
-7.82416e-08
-8.27732e-09
1.49653e-08
3.75071e-08
-4.44575e-08
-2.016e-09
-4.28591e-09
4.36374e-10
-2.20889e-09
7.48343e-09
-2.32163e-09
2.43127e-10
-3.16035e-10
-1.42266e-10
-5.67458e-12
5.89693e-16
-6.82754e-19
-2.17123e-08
-4.75775e-19
7.57594e-16
2.70388e-16
8.71537e-16
-2.5887e-18
2.62219e-24
8.18888e-21
8.35845e-22
5.88627e-18
5.88559e-18
5.88484e-18
5.88808e-18
2.28131e-25
1.23932e-24
-7.14857e-26
2.93113e-28
-2.04734e-30
-4.07735e-30
2.95289e-32
-2.64982e-31
3.09491e-31
1.35252e-35
-1.98156e-34
4.46274e-36
3.84852e-39
-2.89583e-38
1.39635e-39
1.3496e-42
-3.95858e-42
-5.09491e-41
5.7152e-46
-7.12406e-46
-3.28704e-44
2.45547e-49
-3.72889e-49
-4.67542e-48
1.0497e-52
-9.39558e-53
-5.451e-53
4.4599e-56
-1.42566e-56
8.44004e-55
1.88662e-59
-4.10523e-59
1.05721e-56
7.94605e-63
-1.50475e-64
6.01286e-61
3.32775e-66
-3.08134e-67
8.77837e-64
1.38376e-69
-1.02409e-70
-1.68984e-67
5.75696e-73
-7.58228e-74
4.03372e-70
2.38631e-76
-1.36104e-77
-3.05048e-75
1.01234e-79
-1.40728e-80
-5.24447e-76
4.32772e-83
-4.67574e-84
-8.07294e-80
1.89988e-86
3.33726e-88
5.44408e-83
5.64485e-90
1.22903e-91
-3.47482e-86
4.06446e-93
5.848e-94
-4.58521e-89
2.73853e-96
2.18573e-96
-3.66513e-92
1.02784e-99
2.20558e-100
-5.33717e-96
1.23248e-102
-9.18833e-104
-1.65998e-97
2.31174e-106
-3.99079e-107
9.27316e-102
9.16144e-110
4.81696e-110
5.93254e-105
8.73046e-113
8.75661e-114
-2.23441e-108
1.16086e-115
1.5276e-117
-6.21031e-111
2.87638e-119
-3.063e-120
-4.17421e-114
1.92675e-123
9.28928e-124
5.10247e-120
8.69147e-126
3.79078e-127
1.96302e-121
1.52647e-129
-1.50038e-129
-1.92511e-126
-1.24362e-132
-7.06469e-131
1.90151e-129
3.90088e-136
-2.66801e-134
-6.29627e-133
1.18976e-138
6.25237e-139
-4.48611e-134
3.17318e-141
3.1365e-141
9.06797e-137
2.86664e-144
-1.14249e-145
1.26774e-140
1.3338e-146
1.88445e-147
8.19974e-143
3.49678e-150
2.23579e-150
-3.77827e-146
1.22933e-153
9.438e-154
-2.14301e-149
5.15387e-158
-3.10036e-152
-5.04018e-09
1.42038e-08
-2.42725e-08
-4.74279e-09
4.482e-08
3.71711e-08
1.13364e-08
2.50099e-08
2.32651e-08
-6.0999e-09
-1.00193e-08
-3.04649e-08
-3.2404e-08
-3.29653e-08
-3.29696e-08
1.28119e-08
3.24001e-08
-5.49624e-09
1.6157e-08
-4.09512e-09
1.17506e-08
3.07298e-08
1.19789e-08
-1.09848e-07
-8.23214e-09
3.55877e-08
-3.93728e-08
-2.66989e-08
-9.7006e-09
-1.07027e-08
4.04842e-09
3.77131e-09
4.8277e-09
2.24781e-09
-1.49553e-08
-1.16444e-09
4.18474e-10
-3.17611e-10
2.12363e-11
8.23681e-11
-1.35324e-16
3.65885e-17
-1.82663e-08
3.31374e-17
3.46166e-17
1.20654e-16
-9.41938e-16
3.24527e-16
3.52239e-25
-7.53014e-22
-4.05761e-22
5.72219e-18
5.72276e-18
5.72188e-18
5.72148e-18
1.46363e-25
-1.50931e-25
7.97424e-26
4.32387e-28
-1.3947e-28
1.33076e-29
3.48006e-32
-1.96569e-31
-4.45039e-32
8.8618e-36
-1.27033e-34
-1.62313e-34
2.35219e-39
-1.99011e-38
-3.33934e-39
8.14483e-43
-3.62483e-42
-1.7832e-41
3.5301e-46
-8.47914e-46
1.29113e-45
1.55352e-49
-2.22408e-49
1.07202e-48
6.7844e-53
-3.86016e-53
1.8712e-50
2.93815e-56
-1.28123e-56
-4.43538e-54
1.26234e-59
-7.81029e-60
1.59926e-56
5.37258e-63
-1.36174e-62
6.99911e-61
2.26958e-66
1.26719e-67
3.57661e-63
9.60539e-70
-4.06547e-70
6.00397e-67
4.05549e-73
-2.31194e-74
-4.91347e-70
1.92003e-76
-3.24272e-77
2.05985e-73
1.04829e-79
1.18965e-80
-6.70691e-76
3.34793e-83
-1.71613e-84
-1.07536e-79
1.62932e-86
-9.70661e-88
-2.44124e-82
1.39379e-89
9.48584e-91
-1.29605e-85
1.6979e-92
7.2926e-93
-1.2972e-88
1.16053e-95
1.05126e-95
-1.43999e-91
2.06351e-99
-2.35213e-100
4.69833e-96
6.13989e-103
3.90211e-104
-8.30861e-99
5.31336e-106
1.06651e-107
-8.04204e-101
4.04629e-109
2.99326e-110
-8.59468e-105
1.23512e-112
-3.4508e-114
2.58709e-110
9.62069e-116
-6.82007e-117
-1.69414e-110
5.96864e-119
1.72577e-120
-1.22039e-113
1.71164e-122
-1.42496e-123
-1.71361e-120
1.82309e-125
-2.04548e-126
3.22382e-122
2.29039e-127
1.78486e-129
-7.40516e-124
2.75572e-130
4.6001e-132
-1.19386e-126
2.97466e-134
-3.83661e-137
-2.68859e-130
1.08707e-137
-2.08788e-139
-1.46467e-133
4.12828e-141
-2.31878e-142
7.43062e-136
2.68805e-144
-3.39951e-146
-1.70067e-140
3.65306e-147
2.59713e-148
-5.898e-144
3.36387e-151
-6.65848e-153
2.31069e-147
-5.4661e-153
1.47026e-155
8.56885e-149
1.37603e-157
1.16418e-154
2.6927e-08
-3.87481e-09
1.17114e-08
-3.3787e-08
-4.42943e-08
6.30952e-08
-4.26185e-09
-4.94078e-09
5.61172e-08
-1.83076e-08
-1.25968e-08
-1.92658e-08
9.43816e-09
-2.40891e-08
-7.95807e-09
-1.36114e-08
1.45022e-09
-1.51138e-08
-3.98063e-09
2.39416e-08
1.38664e-08
-1.72879e-09
-6.49194e-09
2.29138e-08
3.29837e-09
1.19893e-08
-1.93673e-09
-1.96635e-09
-1.06969e-08
-5.71564e-10
2.72174e-11
9.56953e-11
-1.09451e-10
2.12441e-10
-4.23255e-16
-4.20585e-18
-3.4828e-08
-3.4828e-08
-4.5128e-18
-4.46463e-16
-4.81106e-16
-4.50057e-16
5.37067e-25
1.47479e-21
1.20357e-22
2.55162e-19
2.53948e-19
2.55367e-19
2.56501e-19
6.69037e-26
1.91668e-25
-4.54726e-27
-4.09167e-29
4.32683e-29
9.69009e-31
2.82111e-32
1.22853e-32
2.97241e-33
3.32029e-35
-9.27957e-35
-6.83549e-37
2.76734e-39
-1.68972e-38
7.16282e-40
8.74498e-43
-7.75931e-43
-2.54659e-43
3.62973e-46
-4.07585e-46
-2.22271e-46
1.51769e-49
-8.53322e-50
1.73658e-49
6.31744e-53
-1.20946e-54
1.87251e-51
2.61753e-56
-1.30946e-56
6.18946e-55
1.08092e-59
5.83607e-61
-4.70185e-58
4.43798e-63
-1.27836e-63
-1.83174e-60
1.81271e-66
-2.78716e-67
-2.24278e-65
7.38037e-70
2.55108e-71
-7.58652e-68
3.0167e-73
6.29176e-75
2.12826e-72
1.22801e-76
1.51292e-77
-5.99966e-74
4.88246e-80
4.09207e-83
2.29025e-78
1.97258e-83
-1.21897e-85
-2.5409e-81
9.54516e-87
-4.04976e-88
-2.16308e-83
5.60633e-90
3.93342e-90
-4.16963e-86
1.62003e-93
1.79146e-94
-1.54469e-93
6.54745e-97
3.29352e-99
6.25792e-96
3.06762e-100
-4.3006e-102
-4.95742e-96
1.11302e-103
3.65603e-105
5.62648e-101
5.51666e-107
-3.59385e-108
9.80864e-103
2.71108e-110
-3.7485e-112
-1.23459e-105
1.62412e-113
2.13282e-116
-3.11178e-109
1.36002e-116
-7.53823e-119
-1.13599e-113
2.83437e-119
-3.67113e-121
3.07231e-116
1.87422e-122
1.18105e-123
-3.21726e-118
1.60533e-125
-3.62466e-128
-2.4014e-121
2.85526e-129
-1.35706e-131
-9.03499e-125
1.73173e-132
4.46128e-134
3.39959e-127
5.28983e-136
2.49226e-137
6.35946e-131
4.39684e-139
5.88481e-142
1.21803e-136
1.33306e-141
1.57227e-143
-2.51532e-137
6.48942e-145
2.38228e-148
-1.36482e-140
3.0661e-147
-1.02388e-148
-4.7087e-144
2.24254e-151
-2.1187e-154
2.1072e-150
1.22378e-153
5.34116e-157
2.76692e-151
3.93117e-157
-3.13253e-154
-1.60989e-08
-3.41036e-09
-8.25486e-09
1.95818e-09
4.50799e-09
-9.82179e-09
-2.14796e-09
-1.1934e-08
-1.77934e-08
-3.6186e-07
2.23673e-08
9.697e-08
9.557e-08
9.48469e-08
9.3677e-08
9.3853e-08
3.5881e-08
3.49324e-08
3.77356e-08
3.8007e-08
1.98808e-08
2.41171e-08
2.00593e-08
2.72286e-08
-1.0813e-08
-5.55866e-09
-2.15847e-08
-2.5215e-09
-5.32301e-10
-3.49834e-10
5.72662e-09
-7.11024e-08
2.11911e-08
-6.00136e-09
-2.29613e-10
-1.03945e-08
1.9093e-08
2.14733e-08
1.8775e-08
2.19721e-09
9.63852e-09
-7.25301e-10
-2.3978e-09
-9.05214e-09
-1.57638e-11
-1.34387e-11
1.42071e-09
-4.65628e-11
1.4413e-09
2.70819e-21
5.79252e-20
-2.72987e-19
2.81797e-16
-2.7607e-18
-2.37609e-16
-3.00108e-17
5.19775e-18
5.57607e-18
3.16114e-19
5.55916e-18
-1.11426e-25
3.37026e-23
-3.13813e-23
5.69468e-28
-1.41977e-26
2.12977e-27
3.2788e-29
-1.72432e-30
5.60658e-31
3.1553e-32
-3.43852e-32
-5.8624e-35
1.52182e-36
-2.59009e-36
-7.10398e-38
2.73074e-40
-2.23384e-40
-5.11687e-41
1.0703e-43
-6.82468e-44
-3.20875e-44
4.32491e-47
-1.80312e-47
2.61982e-48
1.74241e-50
-6.58395e-52
2.04992e-49
6.99637e-54
-2.14475e-54
1.0002e-52
2.79885e-57
7.53169e-58
-1.2098e-55
1.11451e-60
6.23984e-64
-4.35182e-59
4.41804e-64
-2.62406e-65
-1.3218e-62
1.75043e-67
4.69804e-69
-3.71222e-66
6.90372e-71
-3.1451e-73
3.82785e-69
2.69869e-74
-9.62938e-77
-2.29398e-72
1.0574e-77
2.5219e-80
-1.46636e-75
4.12493e-81
1.002e-82
-1.92909e-78
1.69615e-84
4.72107e-87
-6.28171e-82
6.12149e-88
-1.34259e-89
-5.68901e-85
2.62648e-91
4.58581e-93
-4.55706e-90
1.33818e-94
-3.46698e-97
-8.07503e-91
4.03021e-98
-3.67989e-99
6.84139e-96
2.75068e-101
4.18283e-103
-3.22549e-97
1.13622e-104
7.08727e-106
-9.63328e-101
4.71713e-108
-1.20644e-109
1.53018e-103
2.68685e-111
-1.15908e-113
-3.95422e-107
1.29669e-114
-6.77742e-117
-5.85541e-110
5.22066e-118
-1.63047e-119
3.24102e-113
1.58305e-120
-8.72458e-123
-2.25246e-116
4.66119e-124
1.09521e-126
-1.12105e-119
2.11937e-128
6.68222e-130
1.1659e-124
9.94467e-131
-1.13991e-132
-7.11691e-128
2.45922e-133
2.24642e-135
5.0812e-129
2.57804e-137
4.56668e-138
7.93189e-133
4.57768e-140
3.64032e-142
-1.38762e-135
7.15296e-144
4.4933e-146
-6.25842e-139
2.94991e-147
9.2983e-149
1.61375e-143
1.11139e-149
-1.55216e-151
-9.62309e-147
-1.35437e-153
-1.25971e-153
4.66955e-150
7.27817e-154
-8.05402e-157
4.35121e-153
-2.68715e-159
-2.98051e-154
-6.13152e-09
-1.79119e-09
-2.97504e-08
-5.66113e-09
-5.86582e-09
-5.12674e-09
3.2396e-08
3.33954e-08
3.2891e-08
3.46119e-08
1.33651e-08
-5.50184e-09
-5.78002e-09
4.69935e-09
2.21307e-08
3.23664e-08
-1.24751e-08
3.85536e-08
9.26229e-10
1.62378e-08
1.13012e-08
6.8278e-09
-2.37267e-09
-7.06125e-11
3.61016e-08
4.89227e-09
1.55038e-08
3.37082e-08
8.7895e-09
1.00539e-08
3.99508e-08
3.00078e-07
-6.22604e-08
5.7061e-08
-2.3211e-08
-2.59047e-09
-6.06426e-09
6.10214e-10
-2.92115e-09
1.05729e-08
-1.3184e-11
8.55687e-13
-2.46878e-08
2.08766e-12
-2.46878e-08
8.49548e-22
1.65477e-21
-6.40724e-21
-1.00109e-19
4.14862e-20
-6.50397e-19
5.70792e-19
9.06806e-28
1.3533e-25
-1.44286e-25
5.10763e-29
2.08839e-27
-2.13569e-29
1.83251e-31
3.00647e-30
-1.60609e-33
4.43565e-35
2.49957e-34
1.81466e-35
5.71847e-39
4.85255e-38
2.30382e-39
1.97464e-42
1.18703e-41
6.94835e-42
8.20901e-46
3.23544e-45
1.30402e-45
3.44296e-49
4.77971e-49
6.90893e-48
1.43732e-52
1.99383e-52
4.12051e-51
5.97337e-56
5.65438e-56
-4.62868e-54
2.47256e-59
1.13258e-59
-3.16998e-57
1.01754e-62
1.12546e-63
-1.53134e-60
4.17228e-66
1.93258e-67
-5.37829e-64
1.7052e-69
6.66282e-70
6.00585e-67
6.93508e-73
-1.08461e-73
-9.45317e-70
3.01892e-76
6.48119e-77
-9.47855e-74
1.54531e-79
3.99374e-81
-5.5354e-77
5.03869e-83
6.50045e-84
-6.13829e-80
1.97369e-86
4.02806e-87
4.79612e-84
7.91714e-90
-4.09793e-91
-2.70139e-86
3.24113e-93
-2.02601e-93
-2.67452e-90
3.90342e-96
-1.82634e-97
-2.40931e-93
2.28618e-98
-7.76131e-101
-5.55113e-95
1.37041e-102
-6.87303e-104
-1.27743e-100
3.53378e-106
-4.24147e-106
3.85691e-105
2.21146e-109
-1.94721e-109
3.51007e-107
3.7274e-112
-9.12619e-114
-7.48071e-108
9.34878e-116
-3.06515e-116
-9.36626e-111
3.96559e-119
-3.95104e-118
6.765e-114
9.12756e-123
-1.07145e-122
1.68087e-118
8.10996e-126
-2.25576e-125
1.18053e-123
3.57877e-128
1.67746e-129
-3.96337e-124
4.61998e-131
-1.22055e-132
-4.18918e-127
4.86408e-134
5.98781e-135
-4.77889e-130
6.18816e-138
6.03433e-138
-6.10002e-133
2.16165e-141
-4.45291e-142
-9.74891e-139
5.29454e-145
-6.61223e-145
1.21187e-141
7.94736e-148
-1.30497e-148
-5.28475e-145
2.86811e-150
-1.74269e-151
1.55416e-146
2.5584e-153
-8.31524e-154
-1.1843e-149
1.35909e-153
-8.98161e-157
1.56174e-152
-7.26046e-158
3.07211e-156
4.39479e-08
8.74813e-08
4.35854e-08
4.42271e-08
4.37957e-08
3.50611e-08
4.54256e-08
4.75996e-08
-5.11914e-09
-3.97285e-09
-6.40292e-09
-4.26086e-09
-1.27944e-08
1.51296e-08
-1.0849e-08
-2.56664e-09
2.45364e-08
6.07777e-08
5.35807e-08
-3.58983e-09
-1.87109e-09
5.41484e-08
-1.97864e-08
3.55014e-08
-1.85229e-08
2.01552e-08
-5.17913e-08
-5.42005e-08
-5.41396e-08
-5.4696e-08
-1.24521e-09
-3.49669e-10
4.25564e-09
3.86451e-09
-9.25738e-09
-5.09181e-15
-5.82036e-16
-8.32047e-19
1.05215e-16
3.29682e-16
1.76557e-15
-5.99198e-14
1.90582e-14
-8.38973e-16
-4.29882e-16
-4.49259e-16
-2.32513e-23
8.55556e-23
-6.858e-21
2.37751e-21
-2.38216e-20
2.71654e-20
-5.59954e-26
-1.96282e-28
6.53976e-27
1.41839e-29
9.1295e-31
1.11031e-31
2.50193e-35
-3.65893e-35
7.36371e-39
-5.82737e-39
2.979e-42
-2.07549e-41
1.21717e-45
-1.98931e-44
4.95639e-49
-4.18494e-47
2.00723e-52
-6.57454e-51
8.12749e-56
2.31197e-53
3.30131e-59
-1.35382e-56
1.33605e-62
-1.82292e-59
5.31187e-66
-2.74893e-63
2.12098e-69
7.00208e-66
8.43893e-73
-9.83162e-70
3.38079e-76
2.85865e-73
1.35963e-79
7.77751e-77
5.56908e-83
2.95498e-80
2.48461e-86
-4.90192e-82
1.75809e-89
-2.33397e-85
3.66295e-92
-1.58133e-88
4.00637e-96
-3.83555e-92
3.9652e-99
-1.35853e-95
5.58695e-102
-7.03894e-98
2.44063e-105
-3.00555e-101
1.01755e-108
-2.33942e-104
3.25776e-112
-1.91524e-108
6.87492e-115
-5.44819e-110
6.0375e-118
-5.87912e-114
1.9925e-121
2.50424e-117
6.72465e-124
-3.6458e-120
3.95981e-128
-1.31693e-127
1.29863e-131
2.34274e-128
1.28876e-134
1.23428e-132
7.82861e-137
3.97295e-133
7.25575e-141
7.95919e-136
9.99321e-144
2.02495e-140
7.38161e-147
4.14591e-142
3.25436e-150
2.65409e-145
9.89765e-154
-8.48723e-151
1.02767e-153
1.68384e-151
-1.90876e-155
2.20987e-08
-4.04361e-09
-8.33624e-08
1.19752e-08
1.56448e-08
2.42207e-08
1.65289e-08
3.89232e-09
8.13419e-09
2.76729e-09
6.38983e-09
1.71018e-08
6.94155e-09
-1.72839e-09
7.43813e-09
-1.18179e-08
-1.82169e-08
9.36904e-08
-6.18486e-08
8.27251e-09
6.34154e-09
3.96946e-09
8.42449e-09
2.58018e-07
1.34329e-08
9.36664e-09
-1.04623e-08
8.75296e-09
-1.85588e-07
-2.20271e-08
6.71335e-09
-1.75078e-07
1.1965e-09
-1.83651e-08
-1.56899e-09
2.07062e-10
1.91184e-10
2.24501e-08
7.22235e-15
1.3101e-16
3.36687e-19
2.96913e-16
-2.00806e-16
-8.57551e-15
9.59454e-15
-7.99368e-15
4.75471e-23
4.05089e-21
3.20839e-23
-3.86492e-20
1.63577e-20
1.02493e-22
1.84745e-20
1.4603e-25
4.81267e-26
-1.87499e-27
1.93709e-26
-3.34734e-27
-2.092e-29
6.37745e-29
8.76755e-30
-4.88061e-32
5.95424e-33
2.55484e-32
-1.4841e-35
9.62488e-37
4.35021e-36
-3.53994e-39
6.72385e-40
1.31067e-39
9.3388e-41
4.71141e-43
6.0936e-43
3.42695e-44
3.20167e-46
1.85405e-46
5.90534e-47
2.17003e-49
1.03246e-49
-6.61732e-51
1.46714e-52
-1.35178e-53
-8.58809e-54
9.89381e-56
9.06982e-56
1.61159e-56
6.66243e-59
-5.25609e-60
1.24025e-59
4.47409e-62
3.19748e-63
-4.42913e-63
2.9956e-65
-1.36242e-66
-2.53051e-66
2.00161e-68
-2.93253e-69
1.95597e-69
1.33411e-71
3.20424e-73
-5.62794e-74
8.86783e-75
-4.56781e-77
-7.76575e-77
5.87966e-78
8.88462e-79
-5.00353e-79
3.88824e-81
1.48856e-82
1.32722e-82
2.56472e-84
-4.96273e-86
2.31526e-85
1.68662e-87
-9.09993e-89
7.9159e-89
1.10614e-90
-8.56065e-93
-2.67765e-92
7.23124e-94
3.56209e-94
-4.99886e-95
4.71757e-97
1.84311e-97
4.9053e-101
3.06916e-100
-5.14252e-101
-1.32311e-100
1.99173e-103
8.79249e-105
-4.27881e-104
1.28874e-106
1.12781e-107
1.41359e-107
8.3094e-110
9.53468e-111
2.36095e-111
5.3379e-113
1.06201e-113
-6.69151e-114
3.4187e-116
1.06307e-117
-8.36362e-118
2.18552e-119
3.42224e-120
-1.04234e-123
1.39166e-122
1.39004e-124
6.07075e-124
8.82867e-126
1.65394e-126
3.05681e-127
5.57786e-129
8.80591e-131
1.96802e-130
3.51311e-132
7.14926e-133
-5.05104e-133
2.20159e-135
1.38527e-135
-2.56954e-140
1.37183e-138
5.65946e-141
2.42431e-139
8.50396e-142
-1.27302e-142
2.98419e-142
5.25531e-145
-2.21638e-145
-2.30938e-145
3.22606e-148
1.5885e-150
1.14519e-149
1.8123e-151
1.15714e-152
6.54539e-152
1.94153e-155
5.44012e-155
1.36735e-08
-1.02803e-08
-2.22076e-07
-9.54913e-09
1.00984e-08
1.34157e-08
-9.60153e-08
-9.79403e-08
-1.05838e-07
-1.17615e-07
1.97484e-08
-3.18582e-09
1.92499e-08
-6.03742e-08
-3.84171e-08
-3.74111e-09
-1.78677e-09
-6.5518e-09
-7.99069e-09
-3.98102e-09
1.35983e-08
-2.26149e-07
-3.78378e-08
-4.74419e-08
1.15367e-07
2.15613e-08
-3.99887e-09
-9.28263e-09
3.14164e-09
2.11072e-08
2.04983e-08
2.20413e-08
-2.36407e-07
-2.00169e-09
1.86722e-08
-1.77088e-08
-2.52085e-07
1.37924e-08
1.77844e-08
3.13633e-09
6.80671e-09
6.83907e-10
2.35415e-10
-2.84239e-08
7.76608e-14
7.18955e-15
2.67973e-15
5.70344e-17
-1.4399e-15
-1.69217e-12
3.08337e-13
1.65727e-12
-4.11743e-14
-6.12328e-14
-9.70815e-15
-9.63114e-15
7.44896e-21
-7.76416e-18
-2.09439e-21
-1.90694e-19
7.07414e-18
-8.8833e-19
7.04309e-18
5.94185e-25
-9.35093e-22
-5.92646e-26
1.2908e-27
-6.0266e-25
-2.98817e-30
3.90592e-30
-3.89938e-28
-2.02696e-32
5.33506e-34
-3.64e-32
-4.5292e-35
1.74568e-37
-1.85514e-35
-3.27925e-38
1.05201e-40
-8.74234e-39
-1.83137e-41
7.88912e-44
-3.48219e-42
-2.9789e-45
5.71951e-47
-1.25826e-45
1.9855e-47
4.06565e-50
-5.93037e-49
5.90762e-52
2.87884e-53
-1.63105e-52
5.85467e-54
2.0298e-56
-7.26046e-56
-1.14675e-56
1.42557e-59
-4.7755e-59
-5.03875e-61
9.97268e-63
-5.33893e-62
2.39854e-63
6.94531e-66
-5.50765e-66
2.2934e-67
4.82174e-69
-9.87046e-70
-1.58726e-70
3.33491e-72
2.14139e-72
-2.4621e-73
2.29722e-75
-4.01743e-76
8.87434e-77
1.57816e-78
-1.51961e-79
3.54516e-79
1.08032e-81
4.21092e-83
1.11537e-82
7.36869e-85
-2.97647e-85
5.93177e-87
5.00825e-88
1.91883e-88
1.08246e-89
3.39368e-91
4.03107e-92
1.03227e-91
2.29433e-94
2.56237e-95
7.238e-96
1.54767e-97
1.66136e-98
1.59401e-98
1.04151e-100
-7.46163e-101
1.39177e-101
6.98557e-104
-4.23508e-104
5.29736e-105
4.67016e-107
1.30368e-107
5.01611e-108
3.1144e-110
-1.42527e-110
2.24931e-111
2.07149e-113
-6.42618e-115
2.2604e-114
1.37462e-116
9.45118e-118
-5.52169e-119
9.08299e-120
-4.29377e-120
3.75878e-120
5.98159e-123
2.73718e-124
2.35178e-126
3.93123e-126
2.0505e-127
-1.84062e-127
2.57622e-129
-4.36215e-130
-1.25193e-130
1.68403e-132
2.36014e-133
-3.41715e-135
1.0995e-135
-2.62799e-136
2.77945e-136
7.14803e-139
7.66632e-139
-5.06802e-139
4.63202e-142
-1.10531e-142
2.97702e-143
2.99115e-145
4.12901e-145
-7.20205e-146
1.92612e-148
6.57148e-150
3.31473e-149
1.7085e-151
3.17385e-152
1.33058e-152
6.63539e-156
3.09358e-157
-1.05191e-09
1.38252e-08
5.62468e-08
2.13078e-08
1.62985e-08
-2.10333e-08
-2.23476e-10
1.49383e-09
-1.03835e-09
2.69563e-09
4.2357e-07
3.68745e-09
9.04074e-09
4.2424e-07
4.27665e-07
4.27582e-07
4.25669e-07
2.05054e-07
7.04749e-09
-6.29926e-09
-1.84026e-08
-3.69653e-09
2.92219e-07
-3.03089e-08
-1.85399e-08
5.04573e-08
3.43512e-08
3.47052e-08
-3.44075e-08
-3.20486e-08
-2.19783e-08
-3.00364e-08
6.83127e-08
5.80778e-08
3.44748e-08
1.03537e-08
-2.42991e-08
-2.58946e-08
1.17473e-08
1.42643e-07
2.1259e-08
5.59649e-08
1.02415e-09
-1.85893e-08
6.05696e-09
6.66376e-09
-5.12348e-08
2.56063e-11
-1.01588e-11
-8.62108e-13
4.53496e-12
5.67217e-12
1.33626e-13
-4.90156e-20
-8.516e-18
3.61221e-19
5.71634e-18
-2.54562e-17
6.29383e-18
-2.40753e-17
-1.26382e-17
-4.41842e-18
-1.25947e-17
1.40537e-23
-5.42627e-21
5.70781e-23
1.65702e-26
-2.25508e-24
7.38799e-27
2.69084e-29
-8.32651e-28
1.9844e-30
1.21544e-32
-4.19342e-31
6.04623e-34
7.02892e-36
-1.48732e-34
2.11415e-37
4.74862e-39
-8.41887e-38
-5.07151e-41
3.31897e-42
-3.47372e-41
-2.29041e-44
2.30696e-45
-1.61324e-44
-4.32026e-47
1.5956e-48
-6.9506e-48
-5.68348e-50
1.10001e-51
-1.42562e-51
-9.82825e-53
7.56035e-55
-6.29533e-55
-3.8751e-56
5.18554e-58
-6.87512e-58
-1.61505e-59
3.54494e-61
-3.29683e-61
8.44026e-62
2.41688e-64
-2.04258e-64
4.84667e-66
1.64456e-67
-9.65666e-68
6.99162e-68
1.11579e-70
-2.79221e-71
-5.15579e-73
7.54432e-74
6.10246e-74
9.91522e-75
5.0922e-77
-2.61031e-77
5.11359e-79
3.42833e-80
-2.38465e-81
3.14626e-82
2.30082e-83
1.59088e-83
1.91142e-86
1.54328e-86
5.05164e-87
-6.50217e-89
1.03292e-89
-4.02592e-90
3.32648e-90
6.89347e-93
1.65962e-93
2.20767e-95
4.59692e-96
-1.11702e-97
6.02977e-99
3.05442e-99
1.0258e-99
1.05794e-100
2.02225e-102
2.61147e-103
6.24902e-104
1.33779e-105
4.79901e-106
7.75714e-107
8.83104e-109
-1.29093e-109
-4.3663e-110
5.81321e-112
-6.7766e-113
5.57045e-113
3.82093e-115
6.88705e-116
1.55764e-116
2.50453e-118
1.13732e-119
4.87659e-120
1.63632e-121
2.43258e-121
2.66989e-122
1.06765e-124
1.64556e-125
2.54417e-126
6.95114e-128
1.05334e-128
-2.5713e-129
4.52072e-131
-7.70105e-131
1.59275e-133
2.93529e-134
-2.07429e-134
-1.80827e-135
1.90064e-137
1.32404e-137
3.0728e-138
1.22714e-140
5.61823e-141
-2.08057e-144
7.90413e-144
1.81068e-144
3.86544e-144
5.07673e-147
9.60653e-148
7.67802e-148
3.18465e-150
8.12794e-151
-1.41774e-150
-3.15841e-153
1.59053e-154
4.38857e-08
-5.77258e-09
-1.39727e-07
1.20052e-07
-1.32992e-08
3.62301e-08
1.627e-07
-7.88571e-08
-1.91227e-08
-2.1792e-08
-1.12203e-08
-1.72711e-08
-3.85836e-08
-1.96189e-08
-2.08067e-07
1.12161e-08
-8.89258e-08
-3.64309e-08
6.16495e-09
7.05352e-09
5.63561e-09
8.12242e-09
-1.43361e-08
2.34835e-08
-1.637e-07
-1.88349e-09
-1.98583e-09
-9.64772e-09
-1.77619e-08
-1.69148e-08
-3.97349e-09
-7.74093e-10
3.79662e-07
-3.54141e-08
1.78734e-07