/*--------------------------------*- C++ -*----------------------------------*\
| =========                 |                                                 |
| \\      /  F ield         | OpenFOAM: The Open Source CFD Toolbox           |
|  \\    /   O peration     | Version:  5.0                                   |
|   \\  /    A nd           | Web:      www.OpenFOAM.org                      |
|    \\/     M anipulation  |                                                 |
\*---------------------------------------------------------------------------*/
FoamFile
{
    version     2.0;
    format      ascii;
    class       volScalarField;
    location    "1.7";
    object      p_rgh;
}
// * * * * * * * * * * * * * * * * * * * * * * * * * * * * * * * * * * * * * //

dimensions      [1 -1 -2 0 0 0 0];

internalField   nonuniform List<scalar> 
8409
(
101.571
99.5564
98.904
104.795
97.4864
97.4379
95.2602
92.259
89.9681
87.55
85.1017
82.6359
80.1695
77.7304
75.3034
72.8992
70.5076
68.1462
65.8103
63.4953
61.1871
58.9008
56.6426
54.3771
52.1351
49.913
47.697
45.4784
43.2792
41.1046
38.9265
36.7728
34.647
32.514
30.373
28.2655
26.2097
24.1904
22.1806
20.1611
18.171
16.2259
14.2829
12.3109
10.369
8.47443
6.58228
4.68314
2.8052
0.937846
108.529
96.9249
94.3308
93.9318
96.2842
97.3651
94.842
92.0389
89.8123
87.4566
85.047
82.6013
80.1696
77.7293
75.2959
72.8999
70.5035
68.1602
65.8293
63.4989
61.1942
58.9039
56.6348
54.3778
52.1263
49.8989
47.686
45.4805
43.2874
41.1089
38.9413
36.7863
34.6448
32.5068
30.376
28.2717
26.2061
24.1741
22.1583
20.159
18.1754
16.2292
14.2897
12.3304
10.3753
8.4642
6.56896
4.67996
2.80491
0.937502
101.04
102.719
110.343
132.165
97.1272
97.5291
95.4378
92.1799
89.8575
87.468
85.059
82.5953
80.1516
77.7261
75.2999
72.8886
70.5178
68.1815
65.8488
63.4991
61.1969
58.9068
56.6269
54.3736
52.1291
49.8939
47.6762
45.4864
43.2962
41.1076
38.9454
36.7855
34.6251
32.4957
30.387
28.2872
26.2053
24.1647
22.1565
20.1608
18.1846
16.226
14.2743
12.3326
10.3894
8.46262
6.56407
4.682
2.80967
0.937974
102.026
105.089
101.923
98.5955
98.3098
97.6605
97.3152
93.028
89.9324
87.5944
85.125
82.6667
80.1828
77.7361
75.3118
72.9013
70.5219
68.177
65.8287
63.5036
61.205
58.9068
56.6318
54.3749
52.1404
49.9045
47.6757
45.4926
43.2916
41.0995
38.9461
36.7809
34.6197
32.4903
30.3942
28.3041
26.2124
24.1614
22.1581
20.1695
18.1897
16.2142
14.2568
12.3191
10.3934
8.46508
6.56552
4.68887
2.81554
0.932678
104.892
105.635
102.754
95.2356
99.1672
98.9607
98.0412
93.6118
90.2373
87.7709
85.2302
82.7121
80.2273
77.76
75.3346
72.9188
70.5417
68.1736
65.8099
63.5078
61.2105
58.9065
56.6365
54.3793
52.1495
49.9198
47.6858
45.4877
43.2794
41.0921
38.9408
36.7729
34.6167
32.4887
30.3939
28.3132
26.2225
24.1666
22.1618
20.1756
18.1881
16.2005
14.2358
12.3083
10.3906
8.46589
6.5726
4.70336
2.82339
0.930705
70.3709
97.3694
113.441
97.5023
98.5655
96.0208
99.1594
94.29
90.5109
87.9459
85.3356
82.7794
80.2693
77.7933
75.3677
72.9447
70.5594
68.1815
65.8089
63.4947
61.2079
58.9036
56.6381
54.3897
52.1553
49.9338
47.6965
45.483
43.2727
41.0854
38.9348
36.7672
34.6092
32.4908
30.399
28.3153
26.2327
24.1767
22.1652
20.1771
18.1825
16.188
14.2231
12.2987
10.3849
8.47002
6.58719
4.72784
2.83297
0.933761
62.4858
103.143
100.72
97.6222
99.5688
99.0488
99.7864
94.4473
90.6115
88.0036
85.3926
82.821
80.3124
77.8233
75.3733
72.9489
70.5625
68.1921
65.8133
63.4866
61.1938
58.9026
56.6361
54.3977
52.1612
49.9315
47.7025
45.4794
43.2737
41.094
38.9284
36.7536
34.6017
32.4961
30.4006
28.3092
26.2383
24.1912
22.1671
20.1691
18.1753
16.1792
14.2185
12.2958
10.3809
8.472
6.59495
4.7275
2.83917
0.942587
109.162
134.82
95.8909
115.253
101.113
100.771
99.0974
93.6116
90.7592
88.0311
85.3991
82.821
80.3112
77.8207
75.3503
72.9509
70.555
68.1815
65.8261
63.4804
61.1858
58.8983
56.6342
54.3989
52.1605
49.9363
47.704
45.4768
43.2851
41.1004
38.9244
36.7507
34.6059
32.5033
30.3992
28.2984
26.2381
24.2003
22.1722
20.1632
18.1706
16.1921
14.232
12.3013
10.3801
8.47436
6.59323
4.71654
2.8366
0.947364
107.873
102.982
116.052
97.8021
104.998
98.1532
97.5739
93.431
90.6365
87.952
85.3468
82.7925
80.2824
77.7995
75.3497
72.9426
70.5273
68.1623
65.8224
63.4914
61.1802
58.892
56.6389
54.3941
52.1626
49.9353
47.7008
45.4748
43.2778
41.0987
38.913
36.7517
34.6246
32.5077
30.3917
28.288
26.2335
24.2047
22.1764
20.1616
18.1687
16.1992
14.2467
12.3016
10.3761
8.47563
6.58624
4.70532
2.82478
0.948537
103.76
102.011
119.804
126.717
102.84
111.278
96.8487
92.8959
90.3306
87.7554
85.2284
82.7079
80.2102
77.7669
75.3273
72.9129
70.5179
68.1583
65.8145
63.4946
61.1834
58.895
56.643
54.3834
52.1515
49.9315
47.7006
45.4767
43.2755
41.1004
38.916
36.7576
34.6403
32.515
30.38
28.2723
26.218
24.1981
22.1788
20.1601
18.1694
16.2153
14.2642
12.3039
10.3695
8.47795
6.58707
4.6939
2.81259
0.937805
101.415
99.7691
98.4047
103.303
100.874
97.6372
95.2514
92.2596
89.9681
87.55
85.1018
82.6359
80.1693
77.7305
75.3034
72.8988
70.5076
68.1462
65.8105
63.495
61.187
58.901
56.6427
54.377
52.1352
49.913
47.6969
45.4784
43.2791
41.1044
38.9265
36.773
34.647
32.5139
30.373
28.2654
26.2097
24.1904
22.1805
20.161
18.1709
16.226
14.283
12.311
10.369
8.47449
6.5822
4.68308
2.80515
0.937925
99.4828
95.7157
100.778
94.221
97.8886
97.0481
94.8353
92.039
89.8122
87.4566
85.047
82.6013
80.1696
77.7293
75.2958
72.8996
70.5034
68.1603
65.8292
63.4988
61.1942
58.904
56.6347
54.3778
52.1263
49.8989
47.6859
45.4805
43.2874
41.1089
38.9418
36.7864
34.6448
32.5068
30.376
28.2716
26.206
24.1741
22.1583
20.1583
18.1754
16.2293
14.2895
12.3302
10.3754
8.4642
6.56891
4.67995
2.80507
0.937451
100.697
102.953
112.231
96.5695
97.0034
97.321
95.2842
92.1807
89.8579
87.468
85.059
82.5952
80.1516
77.7261
75.2999
72.8885
70.5177
68.1814
65.849
63.4991
61.1967
58.9068
56.6268
54.3735
52.1291
49.8938
47.6763
45.4864
43.2962
41.1077
38.9451
36.7854
34.6252
32.4958
30.3871
28.2873
26.2052
24.1647
22.1564
20.1607
18.1847
16.2259
14.2743
12.3324
10.3894
8.46249
6.564
4.68204
2.80981
0.937963
103.201
100.642
99.1429
98.4522
103.293
97.5347
97.3427
93.0284
89.9328
87.5941
85.125
82.6667
80.1827
77.7361
75.3118
72.9013
70.5219
68.1768
65.8287
63.5035
61.2051
58.9068
56.6318
54.375
52.1402
49.9043
47.6758
45.4927
43.2917
41.0993
38.946
36.781
34.6197
32.4903
30.3942
28.3041
26.2123
24.1614
22.1581
20.1696
18.1897
16.2141
14.2568
12.3193
10.3937
8.46508
6.56545
4.68878
2.81553
0.932564
108.197
107.582
125.062
95.7972
99.9734
98.9645
98.047
93.6107
90.2375
87.771
85.2302
82.7121
80.2268
77.76
75.3346
72.9189
70.5417
68.1735
65.8099
63.5078
61.2106
58.9064
56.6362
54.3794
52.1493
49.9198
47.6859
45.4877
43.2789
41.0919
38.9407
36.7729
34.6167
32.4886
30.3939
28.3132
26.2225
24.1666
22.1618
20.176
18.188
16.2001
14.2358
12.3083
10.3906
8.46588
6.5726
4.7033
2.8233
0.930748
53.3953
104.874
100.285
96.8243
98.419
94.9421
99.1595
94.2885
90.5111
87.9459
85.3355
82.7793
80.2694
77.7932
75.3677
72.9446
70.5594
68.1815
65.8088
63.4948
61.2078
58.9035
56.638
54.3898
52.1554
49.9339
47.6964
45.4829
43.2727
41.0856
38.9349
36.7667
34.609
32.4908
30.399
28.3153
26.2328
24.1766
22.1651
20.1771
18.1824
16.1875
14.2231
12.2987
10.3848
8.46999
6.58715
4.72784
2.83267
0.933736
35.0343
106.17
124.082
97.6968
104.459
99.1792
99.7844
94.4443
90.6121
88.0035
85.3926
82.821
80.3124
77.8232
75.3733
72.9488
70.5625
68.192
65.8133
63.4866
61.1938
58.9026
56.6361
54.3977
52.1609
49.9314
47.7025
45.4794
43.2738
41.0941
38.9286
36.7533
34.6017
32.496
30.4006
28.3091
26.2383
24.1911
22.1671
20.1692
18.1752
16.179
14.2185
12.2958
10.3808
8.47198
6.59511
4.72758
2.83904
0.942688
108.33
110.625
122.987
96.7941
96.0807
97.0301
99.1162
93.6123
90.7595
88.0311
85.3991
82.821
80.3112
77.8207
75.3503
72.9509
70.5553
68.1812
65.8263
63.4804
61.1858
58.8983
56.6342
54.3989
52.1604
49.9363
47.704
45.4767
43.2849
41.1004
38.9243
36.7504
34.606
32.5033
30.3992
28.2984
26.2381
24.2003
22.1722
20.1632
18.1706
16.1921
14.232
12.3013
10.38
8.47434
6.59322
4.71652
2.83654
0.947542
107.165
101.628
115.931
97.8373
99.4812
95.2983
97.4945
93.4314
90.6367
87.9519
85.3467
82.7925
80.2824
77.7995
75.3497
72.9428
70.5274
68.1622
65.8224
63.4914
61.1802
58.8921
56.639
54.3941
52.1625
49.9353
47.7008
45.4747
43.2779
41.0988
38.9131
36.7515
34.6251
32.5077
30.3916
28.288
26.2335
24.2046
22.1763
20.1616
18.1688
16.1992
14.2467
12.3014
10.3761
8.47568
6.5862
4.70528
2.8248
0.948533
103.227
103.589
99.6103
106.012
97.1684
110.629
96.8472
92.8965
90.3305
87.7552
85.2284
82.7079
80.2101
77.767
75.3273
72.9131
70.5179
68.1583
65.8145
63.4945
61.1833
58.895
56.643
54.3834
52.1516
49.9314
47.7004
45.4767
43.2756
41.1004
38.9158
36.7576
34.6404
32.515
30.3799
28.2725
26.2181
24.1981
22.1788
20.1601
18.1694
16.2153
14.2642
12.3038
10.3694
8.47811
6.5869
4.6939
2.81268
0.937795
101.441
99.8778
108.418
101.408
98.4766
97.6652
95.2385
92.2594
89.968
87.5499
85.1019
82.6361
80.169
77.7304
75.3033
72.8985
70.5075
68.1462
65.8105
63.4948
61.1868
58.901
56.6426
54.3768
52.1351
49.913
47.6967
45.4784
43.2788
41.1043
38.9265
36.773
34.647
32.5138
30.3729
28.2654
26.2096
24.1904
22.1805
20.1609
18.1708
16.226
14.283
12.3111
10.369
8.47446
6.58204
4.68297
2.80505
0.937907
100.158
96.0751
97.0065
94.7338
95.8689
98.4151
94.841
92.0384
89.8122
87.4565
85.0469
82.6012
80.1695
77.7292
75.2958
72.8994
70.5033
68.1606
65.8291
63.4986
61.1941
58.904
56.6345
54.3771
52.1263
49.8988
47.6858
45.4805
43.2875
41.1089
38.9419
36.7864
34.6447
32.5067
30.3759
28.2715
26.206
24.1745
22.1581
20.1583
18.1755
16.2294
14.2894
12.3296
10.3754
8.46431
6.56883
4.6799
2.80517
0.937257
100.835
102.092
101.611
97.1836
97.3779
97.7925
95.2882
92.1808
89.8583
87.4679
85.0589
82.5952
80.1515
77.726
75.2998
72.8884
70.5177
68.1811
65.8489
63.499
61.1965
58.9067
56.6267
54.3734
52.1291
49.8937
47.6762
45.4863
43.2962
41.1077
38.945
36.785
34.6252
32.4959
30.3871
28.2872
26.205
24.1647
22.1564
20.1606
18.1847
16.2259
14.274
12.3322
10.3895
8.46238
6.56373
4.682
2.80976
0.93763
101.795
100.842
98.5969
99.0795
91.2587
97.5768
97.3499
93.0298
89.9323
87.5939
85.1249
82.6666
80.1826
77.736
75.3117
72.9012
70.5218
68.1766
65.8287
63.5033
61.2052
58.9067
56.6318
54.375
52.14
49.9041
47.6759
45.4927
43.2916
41.0993
38.9459
36.781
34.6196
32.4902
30.3941
28.304
26.2122
24.1614
22.1582
20.1695
18.1897
16.2141
14.2565
12.3194
10.3937
8.465
6.56532
4.68867
2.81539
0.932242
101.481
105.828
99.4877
94.3515
99.9074
98.4614
98.0451
93.6112
90.2368
87.7713
85.2302
82.7121
80.2266
77.7599
75.3346
72.919
70.5416
68.1735
65.8098
63.5077
61.2106
58.9064
56.6358
54.3794
52.149
49.9198
47.686
45.4877
43.2787
41.0918
38.9405
36.7729
34.6165
32.4886
30.3939
28.3131
26.2227
24.1665
22.1617
20.1761
18.1879
16.1996
14.236
12.3082
10.3905
8.46581
6.57275
4.70318
2.82322
0.930656
80.7587
94.1979
109.546
98.0343
105.633
99.8321
99.1651
94.2891
90.5103
87.946
85.3352
82.7793
80.2695
77.7932
75.3673
72.9445
70.5593
68.1816
65.8087
63.4947
61.2077
58.9033
56.6378
54.3897
52.1555
49.9338
47.6963
45.4827
43.2726
41.0859
38.935
36.7665
34.6089
32.4907
30.3991
28.3152
26.2328
24.1766
22.1651
20.1772
18.1823
16.1871
14.2231
12.2986
10.3846
8.46992
6.5871
4.72788
2.83219
0.933706
86.0828
105.551
100.843
95.3776
97.4937
99.7593
99.7834
94.4436
90.6115
88.0035
85.3925
82.8209
80.3123
77.8232
75.3732
72.9487
70.5624
68.1918
65.8132
63.4866
61.1939
58.9025
56.636
54.3976
52.1607
49.9314
47.7024
45.4797
43.2741
41.094
38.9284
36.7532
34.6016
32.496
30.4001
28.3089
26.2383
24.191
22.167
20.1692
18.1751
16.1789
14.2185
12.2958
10.3806
8.47191
6.59515
4.7273
2.83896
0.942643
109.072
101.424
132.667
108.165
92.4058
105.806
99.1305
93.6119
90.7596
88.0311
85.399
82.8209
80.3111
77.8206
75.3502
72.9508
70.5555
68.181
65.8263
63.4804
61.1857
58.8983
56.6345
54.3989
52.1604
49.9362
47.7038
45.4766
43.2849
41.1005
38.9242
36.7503
34.6059
32.5032
30.3991
28.2983
26.238
24.2001
22.1721
20.1633
18.1704
16.1921
14.232
12.3012
10.3799
8.47428
6.59317
4.71647
2.83653
0.947566
110.161
102.129
87.5188
100.936
98.0637
110.099
97.5142
93.4311
90.6368
87.9519
85.3466
82.7924
80.2823
77.7994
75.3496
72.9429
70.5273
68.1621
65.8226
63.4914
61.1801
58.892
56.6389
54.394
52.1623
49.9352
47.7007
45.4746
43.2779
41.0989
38.9129
36.7514
34.6255
32.5076
30.3914
28.288
26.2334
24.2044
22.1762
20.1615
18.1688
16.1992
14.2466
12.3012
10.376
8.47567
6.58609
4.70521
2.82488
0.948445
103.598
104.441
89.8395
101.228
85.7325
92.2235
96.8519
92.8962
90.3305
87.7551
85.2285
82.7078
80.2098
77.7669
75.3272
72.9133
70.5178
68.1583
65.815
63.4944
61.1831
58.8949
56.6429
54.3834
52.1515
49.9313
47.7003
45.4767
43.2758
41.1003
38.9154
36.7576
34.6407
32.5149
30.3799
28.2725
26.2181
24.198
22.1788
20.1601
18.1693
16.2151
14.2641
12.3037
10.3694
8.47804
6.58673
4.69368
2.81266
0.937721
96.5346
97.6146
95.3076
97.5619
96.5619
97.4613
95.2944
96.0258
96.857
95.9702
97.0117
95.9661
96.8541
96.0698
96.6374
96.9368
97.137
97.2309
96.6751
96.9553
97.1345
97.4367
98.2094
97.6749
97.5358
97.4383
97.8468
97.6729
98.0107
98.564
98.5894
98.801
98.0086
98.4866
98.5799
99.0694
99.1225
99.5813
93.6138
99.1566
99.0897
99.5922
99.4647
99.9774
99.4393
99.025
99.5396
100.395
99.4339
99.1448
112.927
99.8918
96.9486
99.1457
123.22
99.9236
98.8157
104.436
99.9588
99.7515
98.8613
114.091
99.8791
98.0878
97.6663
96.9139
110.848
98.0537
97.7005
96.9238
96.5182
97.6026
95.293
97.6549
96.5175
98.1366
95.2987
95.992
96.8611
96.0293
98.2063
96.0165
96.734
96.003
96.6914
96.9359
97.13
97.6642
96.6709
96.8973
97.1382
97.4378
98.3723
97.6607
97.7028
97.4496
99.6842
97.6924
98.0128
98.48
98.6346
98.5754
98.028
98.7402
98.6071
99.144
99.117
99.6755
104.694
99.0108
99.5556
99.5352
99.4962
101.517
99.4322
99.795
99.1967
97.6
99.4254
99.1424
115.406
99.8318
105.51
99.144
94.6516
99.9857
98.88
111.574
99.8698
113.961
98.8715
102.852
99.8077
98.0326
97.7682
96.9222
91.613
98.2021
97.8872
96.9178
96.4277
98.3109
95.3032
98.3775
96.5591
98.8493
95.3111
96.0017
96.717
95.9683
98.7229
96.0408
96.9501
95.9384
96.6666
96.928
97.1421
97.867
96.6554
97.0105
97.1382
97.4539
98.2077
97.6317
97.6251
97.4528
96.7578
97.6196
97.9871
98.7858
98.663
98.9282
97.9897
98.5175
98.6407
99.1748
99.3833
99.5591
100.263
99.0909
99.3419
99.5551
99.2824
97.2859
99.4302
99.9541
99.1354
97.8739
99.4267
99.1472
94.6746
99.9384
103.794
99.1478
97.0855
99.8268
98.8745
102.72
99.7837
122.412
98.8371
103.752
99.8468
98.2414
97.9235
96.9202
92.889
98.1511
97.9707
96.9143
95.4662
97.3987
98.9644
97.9431
96.5802
96.8704
97.3037
97.5286
96.9794
96.5227
97.4481
96.6877
97.5181
97.0721
94.2275
95.1314
93.8632
95.2592
94.2356
95.1329
93.8713
96.7115
96.5651
96.3862
96.0719
97.043
96.3966
96.3442
96.7531
96.5391
99.4933
97.2688
96.5619
97.5667
96.7372
93.8348
95.0191
93.6623
94.8379
93.8426
94.9697
93.6703
100.494
95.3371
96.247
97.1971
97.8946
95.4447
96.0309
96.7523
97.095
97.2939
97.3779
96.8714
97.3262
96.7506
93.9244
96.8224
93.8019
95.3011
93.9316
96.8148
93.8053
100.442
100.615
100.805
97.5233
98.8203
98.2385
99.8395
98.8403
97.6189
99.3211
97.5199
97.2185
98.531
101.287
94.1261
97.8114
94.3461
97.3422
94.1362
97.823
94.3501
101.145
100.97
98.4689
102.198
98.5121
102.184
98.6231
98.3249
97.9796
100.326
98.8564
97.9673
100.238
98.326
94.6363
98.727
95.1776
98.0494
94.6388
98.7274
95.1764
95.4194
103.019
95.3455
98.7391
92.9737
107.639
94.9984
101.966
98.3039
102.844
94.4773
98.3948
100.329
101.945
95.3818
99.771
95.6508
99.162
95.3806
99.7794
95.6542
98.761
102.215
100.723
92.3973
98.2006
98.4386
101.547
99.0128
99.5721
99.3306
99.1211
99.5822
99.4785
98.9311
95.6498
99.7498
95.7601
99.7878
95.6547
99.778
95.7725
101.6
108.695
107.953
98.3602
98.8787
106.974
102.41
99.3213
99.2818
101.173
100.69
99.0812
97.9842
99.2165
95.9159
98.5599
95.9307
99.116
95.9222
98.3479
95.9397
148.666
91.8251
107.729
104.7
132.854
93.72
106.971
101.069
99.9967
98.744
97.8349
99.9961
98.1532
101.08
95.7495
98.2871
95.7184
97.5072
95.7595
98.2895
95.7291
108.288
101.088
93.418
98.9122
104.116
99.3621
92.8226
99.673
101.965
97.08
111.144
101.945
96.9988
99.644
95.1185
96.4106
94.7162
96.8476
95.1268
96.4111
94.7249
99.8426
97.1388
97.0497
98.3124
98.619
97.1401
96.9149
99.7829
96.9354
97.6032
97.6438
95.8997
98.2179
96.9698
94.2349
95.1355
93.8702
95.2421
94.2347
95.1375
93.87
96.2102
96.5525
96.3435
98.1894
96.2393
96.755
96.3601
96.8815
96.4999
101.854
97.5678
96.8078
96.5526
97.597
93.8417
94.9319
93.6696
94.8364
93.8411
94.9641
93.6698
97.5651
98.5968
95.9585
97.6426
97.5857
98.442
95.898
96.6359
97.198
97.6448
97.4287
96.6804
97.2664
97.0346
93.9304
96.8126
93.801
95.2761
93.9303
96.8057
93.801
98.8451
98.3143
101.107
98.7133
98.901
98.4959
99.6912
99.7327
97.4622
97.6812
97.5409
101.186
97.4356
97.5158
94.1344
97.8176
94.3462
97.3529
94.1347
97.8283
94.3458
98.6641
101.234
98.2782
98.2969
95.6457
102.352
98.3065
98.4436
98.0005
100.209
99.6621
98.3336
98.0143
100.116
94.635
98.7277
95.1732
98.0466
94.6346
98.7227
95.1726
93.0637
97.3218
96.6534
101.154
91.7002
97.5497
130.694
102.307
98.3883
102.262
98.0779
102.179
98.4121
110.274
95.378
99.7822
95.6495
99.1616
95.3789
99.786
95.6494
99.9136
98.7827
99.8444
97.5297
98.4239
96.942
99.6953
98.8286
99.4342
99.8746
102.264
98.9488
99.4103
100.545
95.6496
99.7828
95.7701
99.7789
95.6487
99.7827
95.7701
104.994
85.0128
101.347
94.4413
102.133
97.0689
100.921
99.6396
99.3152
106.882
99.3489
99.821
99.2878
98.1385
95.9186
98.4033
95.9374
99.1297
95.9183
98.2826
95.9371
126.475
95.4935
107.227
98.3906
97.8561
102.424
122.945
101.063
100.455
99.0422
94.4417
101.064
100.528
99.1384
95.759
98.2858
95.7295
97.5061
95.7589
98.2848
95.7295
110.885
97.0421
109.004
107.147
113.149
97.6558
103.107
99.7399
101.736
96.3895
110.453
99.7174
101.427
96.0614
95.1254
96.4127
94.724
96.8494
95.1252
96.4141
94.7239
96.8868
97.1593
96.9908
98.4936
97.9695
97.1982
97.192
97.799
98.3026
98.1033
97.6993
97.1615
98.1343
96.7657
94.2354
95.1381
93.8708
95.2436
94.2274
95.1371
93.8626
96.2979
99.0688
96.5254
96.0474
96.6923
97.8468
96.479
96.722
96.5841
97.6928
98.9445
96.6967
96.5872
97.7392
93.8413
94.9614
93.6712
94.8474
93.8328
95.0121
93.6637
96.9406
97.6933
95.7835
97.4687
98.8518
98.0051
97.2894
96.7066
97.2926
97.1196
97.8052
96.6951
97.3868
97.1796
93.9316
96.8096
93.8054
95.4146
93.9245
96.8022
93.8019
99.8389
99.667
99.0532
91.7223
106.192
98.44
108.078
98.7702
97.7719
98.0878
97.5297
98.4484
97.3698
98.4504
94.1366
97.8208
94.3499
97.32
94.126
97.8202
94.3457
97.6713
104.281
107.668
98.8528
102.755
104.843
94.258
98.6525
98.0747
99.9871
98.3531
98.1612
97.9471
100.109
94.6382
98.7265
95.1761
98.0374
94.635
98.7214
95.1755
92.2856
96.021
89.4683
95.8475
94.0374
96.5408
89.0813
102.608
98.3695
106.01
101.962
102.664
98.4108
104.813
95.3822
99.7895
95.6538
99.1632
95.3837
99.7812
95.65
101.449
96.9439
99.6667
97.3795
100.731
115.048
99.6246
99.6116
99.3778
99.6212
99.6795
100.385
99.3046
99.4998
95.6523
99.7739
95.7727
99.771
95.6478
99.7492
95.7601
102.025
83.1429
105.099
100.425
125.029
82.284
100.457
99.0115
99.4737
98.1116
117.459
100.523
99.4571
100.117
95.9217
98.2992
95.9392
99.1075
95.9153
98.4585
95.9305
107.517
102.67
104.393
103.146
101.941
110.28
99.7511
100.745
101.147
106.675
158.456
101.176
101.53
107.64
95.7591
98.2865
95.7291
97.5827
95.7489
98.2886
95.7186
91.9568
97.2813
102.734
96.9396
85.8886
95.6334
104.255
99.9639
101.082
104.63
92.394
99.9351
100.946
104.934
95.1264
96.4134
94.725
96.8515
95.1178
96.4116
94.7163
98.3612
97.8756
96.117
96.5499
96.144
98.4045
97.8688
96.4759
97.2607
96.9527
97.4096
97.2232
96.955
96.5156
96.5386
96.0697
96.1197
95.3057
96.0634
96.1248
96.5918
97.6171
97.4583
97.1145
96.7032
97.4509
96.4371
97.4059
98.4954
96.5753
97.321
96.1219
96.1552
96.9886
98.2217
96.3815
97.4103
96.9714
96.9566
97.29
96.9564
96.3722
96.3402
95.2961
96.1068
96.1092
96.0701
96.1247
96.2484
97.3073
96.6608
95.8603
96.0183
96.6468
95.8276
97.3544
96.8007
97.1958
96.5875
96.8674
96.7686
96.5647
96.8308
97.0486
96.3486
96.7613
96.022
96.3063
96.7587
97.0263
96.738
97.3185
96.6223
95.2164
96.5636
97.7168
96.7565
97.2558
95.9784
96.9082
95.7177
96.6841
95.7479
97.2665
96.8024
96.887
96.8867
96.6101
96.8511
96.6294
96.8667
97.0527
96.0251
96.4459
96.7666
96.2143
96.7474
97.2791
96.9607
96.9246
97.0037
96.6599
96.9391
97.007
96.9593
96.6551
98.0287
97.0052
96.9417
97.8437
97.0101
96.6611
97.2862
97.2165
97.1353
97.1438
97.2248
97.1335
97.3343
96.759
97.3713
97.1559
97.359
96.9853
97.3387
96.8645
96.9611
96.6713
96.934
97.0023
96.9451
97.0077
96.9531
96.6514
96.9895
97.802
96.9957
97.7947
97.0135
96.6458
97.2925
97.1419
97.2062
97.1506
97.2186
97.1286
97.3292
97.606
97.4674
97.5892
97.4388
97.4175
97.6052
97.8252
96.5671
100.005
97.4862
98.1151
99.6621
97.415
96.5886
97.6445
97.5844
97.5026
97.6675
97.5816
97.502
97.6569
101.551
97.5085
97.2234
98.3749
96.9913
98.6537
99.1579
97.3526
97.4398
97.3382
97.5864
97.416
97.6072
97.2642
96.7785
98.1219
99.4631
97.7366
99.5591
97.3943
97.5349
97.6855
97.6719
97.5806
97.5194
97.5801
97.5554
97.8186
98.1357
97.9261
98.0661
98.0111
97.9263
98.0668
98.1596
99.2869
99.0436
98.9728
98.5786
99.4764
99.0655
98.8527
98.2981
98.4111
98.7162
98.6106
98.4228
98.7442
98.3309
98.3536
98.7935
97.9721
100.072
97.9569
100.271
98.3868
98.1374
98.0015
97.8914
98.0523
97.9459
98.0861
98.126
98.6318
98.8801
99.1773
98.8227
98.8799
99.0298
98.6272
98.3005
98.6062
98.3971
98.7048
98.4081
98.8517
98.3025
100.524
99.0143
99.6985
99.0555
99.0127
99.7087
100.573
101.286
102.072
99.5481
99.0868
102.068
99.5535
101.29
100.473
99.7448
99.7811
99.6084
99.7444
99.7711
100.504
101.983
95.1873
98.3818
102.584
98.1967
100.256
102.182
100.47
99.2597
99.001
99.7026
98.9815
99.809
100.583
101.29
99.0844
102.876
99.5283
102.203
99.6025
101.339
100.447
99.5574
99.7127
99.7749
99.7463
99.7757
100.444
99.4611
99.4474
99.3647
99.6102
99.4404
99.3181
99.4518
99.8529
100.015
99.2972
99.6817
99.9163
99.316
99.4627
99.5705
99.5198
99.7159
99.4354
99.4216
99.7165
99.5491
98.7886
99.0179
99.5067
100.055
99.7045
99.2599
98.8791
99.503
99.3881
99.4447
99.3174
99.4405
99.3728
99.3971
99.0801
100.354
99.7946
99.2546
99.8256
99.2539
99.0543
99.5517
99.4438
99.4406
99.7014
99.4921
99.7011
99.4576
100.364
99.8221
99.6871
99.1502
99.8249
99.6975
100.361
93.1804
121.571
101.437
124.609
104.031
100.737
93.6925
99.1849
98.8106
100.046
99.9072
98.8348
100.056
99.1473
99.4058
103.597
99.2884
113.317
99.1742
98.7463
100.089
100.38
99.1499
99.8691
99.7001
99.8429
99.7021
100.39
94.4443
118.843
103.913
101.041
103.828
100.781
95.726
99.2596
99.9397
98.8968
100.039
98.8656
100.045
99.3811
100.457
100.11
100.003
98.8383
100.114
99.9561
100.444
101.629
97.4007
103.043
104.996
97.0008
103.032
101.598
99.9745
99.4162
100.705
99.9114
99.2799
100.66
99.9628
101.097
97.0055
100.103
99.5135
100.068
99.3031
101.061
100.462
98.8506
100.114
99.9021
100.115
99.926
100.462
101.683
115.511
96.3355
102.991
96.5796
102.989
101.706
99.9664
99.8891
99.2284
100.74
99.2246
100.679
99.9021
98.8682
100.157
97.833
98.0359
100.173
97.8451
98.9345
98.4731
97.9941
97.1247
97.667
98.0037
98.3682
97.1252
98.4541
97.5757
97.7681
96.9247
97.5647
98.4086
97.7453
99.6769
111.243
101.77
96.6804
101.88
96.9267
99.6948
98.7916
97.9973
100.101
97.8494
100.199
97.8489
98.7488
98.3832
97.6713
98.0122
97.1222
98.0069
98.5023
97.1032
98.2654
96.9238
97.6083
97.699
97.5875
98.3079
97.7361
99.4378
97.601
96.0527
96.5425
97.1584
96.0373
98.18
96.5888
96.9921
96.9592
97.8005
96.5513
97.1546
96.9641
96.4662
96.1343
96.0975
95.2977
96.4348
96.1261
96.0927
97.3433
97.6458
96.4967
98.1055
98.0972
97.0589
96.9824
97.9901
96.5873
97.0843
96.147
96.1159
97.7589
98.9451
96.5941
98.0792
97.2734
96.9572
97.1024
96.9599
96.5511
96.4762
95.2989
96.1058
96.0908
96.0999
96.0926
96.4233
97.355
96.5257
95.7397
96.0377
97.2797
96.4526
95.9042
96.7903
96.8873
96.6192
96.803
96.8515
96.9598
96.62
97.4075
96.3125
96.72
96.2744
97.1377
96.6459
96.8156
96.8852
98.1947
96.5923
97.6799
96.6004
97.6885
96.6471
97.2729
96.0312
96.516
95.6312
96.4977
95.7657
96.8336
96.8656
96.8228
97.0236
96.6306
96.9585
96.6265
96.9344
96.923
95.9906
96.3988
96.7487
96.0451
96.6962
97.0802
96.9303
96.9288
96.9951
96.7041
96.938
96.9252
96.991
96.5698
97.61
96.983
96.8716
96.6267
97.3703
96.9685
97.367
97.1968
97.121
97.1321
97.3312
97.1896
97.1801
96.6592
97.6421
97.2944
97.0391
97.2652
97.0134
96.6796
96.9261
96.6874
96.871
96.9837
96.9041
96.988
96.9162
96.4858
96.8759
97.2547
96.9282
97.2914
96.9538
96.5012
97.441
97.1365
97.1743
97.1176
97.1802
97.1145
97.4265
98.0577
97.5
97.5685
97.4418
98.7111
97.3366
97.5565
97.7694
99.0422
97.4376
102.297
104.214
98.1533
100.39
97.3848
97.5936
97.5219
97.6303
97.4828
97.6072
97.5346
98.912
97.5673
97.5145
98.0162
97.4308
98.5523
98.6423
97.9687
97.4453
97.4072
97.51
97.3603
97.5322
97.7271
101.924
102.31
107.939
98.6426
108.184
98.8816
100.562
97.83
97.6406
97.7587
97.5832
97.5791
97.562
97.7333
98.1094
97.8802
98.0828
97.9753
98.1244
97.9236
98.0407
98.5787
98.8591
98.847
98.5297
98.6226
98.951
98.8537
98.2812
98.4269
98.7323
98.5608
98.2983
98.3982
98.7352
98.0074
98.7446
98.1051
99.981
98.0603
100.033
98.1412
98.1061
98.0083
97.8914
98.0699
97.8933
98.0555
98.0958
98.4839
98.7557
99.3169
98.8585
98.9587
98.8777
98.452
98.2745
98.6867
98.418
98.7437
98.4647
98.7347
98.2472
100.566
98.9787
99.7786
99.0626
100.546
99.0892
99.6919
101.402
102.511
99.4952
99.5087
101.37
102.914
99.5231
100.436
99.7975
99.7766
99.5912
100.455
99.7341
99.7723
102.433
99.5442
98.5844
104.341
98.3011
103.928
102.62
100.672
99.1462
98.9984
99.6821
99.0039
99.7352
100.58
101.429
99.2871
103.6
99.4782
103.926
99.5563
101.451
100.443
99.5585
99.7284
99.7536
99.7445
99.7598
100.441
99.5368
99.4171
99.3836
99.2342
99.4142
99.4101
99.3727
99.3138
99.8629
99.2287
100.14
99.1586
99.8164
99.1512
99.5034
99.4539
99.7202
99.427
99.4588
99.4825
99.7284
99.6438
100.123
99.434
99.6553
99.4263
99.596
99.7892
99.5442
99.2321
99.5016
99.3426
99.5183
99.3702
99.7146
99.3594
111.894
100.295
99.1817
99.9079
99.1341
99.5838
99.4643
99.4283
99.4225
99.7012
99.5173
99.7115
99.4261
100.388
99.8843
99.6968
99.1426
100.394
99.8872
99.6946
118.616
103.307
104.039
127.192
92.3477
102.473
103.037
99.806
98.8495
100.011
99.8752
99.5513
98.9249
100.009
99.7807
108.109
99.4296
97.5747
99.3338
98.3647
100.049
100.389
99.1427
99.9176
99.6841
99.9091
99.6903
100.42
112.901
93.6426
107.404
106.442
133.904
101.41
110.112
100.127
99.8018
98.7441
100.012
98.7177
100.005
100.365
100.458
100.122
99.8722
98.8873
100.462
100.134
99.8585
101.986
121.755
102.953
111.747
101.85
114.094
102.87
99.9543
99.251
100.76
99.9034
99.8159
99.0474
100.868
101.057
115.483
101.418
109.018
100.883
109.146
101.081
100.456
98.8782
100.152
99.8804
100.145
99.8699
100.456
102.043
117.091
123.302
102.581
113.562
102.692
102.172
100.168
99.8519
99.316
100.774
99.1176
100.761
100.256
98.6697
100.238
97.8396
97.9006
98.7207
100.758
97.836
98.5351
98.0578
97.1745
97.7984
98.4669
98.1038
97.2418
98.239
97.5728
97.6473
96.9257
98.1953
97.5621
97.6785
99.8051
134.322
101.128
104.433
101.189
112.245
99.8789
98.7541
97.928
99.8239
97.8329
99.8378
97.8333
98.8934
98.4601
97.839
98.1828
97.2036
98.1533
98.4695
97.1989
98.0921
96.9221
97.6144
97.6901
97.5911
98.0858
97.6759
98.5258
99.4653
96.1112
96.4499
97.8641
96.055
97.6005
96.6056
97.2685
96.9564
98.5212
96.5501
97.2792
96.9617
96.5163
96.1383
96.08
95.3106
96.4139
96.1608
96.0632
97.0136
97.6609
97.5793
98.8385
98.149
100.543
96.1371
97.3384
96.5224
98.0567
96.1621
96.0859
101.079
97.1895
96.5496
98.778
97.2781
96.9495
97.283
96.9578
96.6946
96.5221
95.32
96.0797
96.0941
96.1421
96.0672
96.7653
97.119
96.5537
95.8914
95.9979
97.2039
96.5671
95.8265
96.9864
97.0063
96.6322
96.9044
96.9755
96.9924
96.6311
96.9659
96.4631
96.7601
95.9401
97.1892
96.2161
96.7714
96.6518
98.3239
96.6206
100.257
96.5917
97.472
97.3917
96.8416
96.0244
96.635
95.9244
96.5727
95.8273
98.1158
96.9992
96.8741
97.026
96.6323
96.9864
96.6316
96.9975
96.9332
95.9335
96.4021
96.7603
96.2403
96.7719
96.9394
96.9302
96.8624
96.983
96.6652
96.9141
96.875
96.9801
96.4861
97.2102
96.9491
96.9439
96.483
97.1977
96.9942
97.4275
97.1779
97.1164
97.1445
97.3859
97.1875
97.1199
96.7302
97.8372
97.3662
97.497
97.3469
97.1947
96.7488
96.9503
96.6613
96.8782
96.9748
96.8841
96.9772
96.9629
96.5831
97.0708
97.3443
96.9561
97.4188
96.96
96.5301
97.4517
97.1453
97.1857
97.1305
97.196
97.1238
97.4431
97.8033
97.3932
97.5042
97.4557
97.7583
97.4093
97.5175
97.153
97.9897
98.1418
98.526
103.131
98.4128
98.1457
97.7517
97.5286
97.6018
97.6196
97.6787
97.5439
97.6206
98.9505
97.6829
97.2858
98.7985
97.5711
98.7949
98.5189
97.6603
97.4563
97.4292
97.5141
97.4666
97.5217
98.8886
97.17
96.3704
102.017
98.1931
99.0343
98.1517
98.0269
97.7529
97.6333
97.5521
97.6417
97.5527
97.613
97.7413
98.0611
97.9045
98.1033
97.996
98.0696
97.9004
98.096
98.532
99.4707
98.8566
98.5708
98.5379
99.5152
98.8542
98.2615
98.5352
98.7612
98.6112
98.2465
98.4113
98.7449
98.4057
98.5328
97.905
101.939
97.912
100.55
98.3905
98.0579
97.9913
97.9082
98.0644
97.9042
98.0639
98.0593
98.5094
98.3857
99.9946
98.8945
100.109
98.9039
98.5062
98.2597
98.6066
98.4577
98.7573
98.4133
98.7343
98.2573
100.598
99.0106
99.7482
99.0392
100.597
99.0162
99.7082
101.44
103.742
99.4243
99.3883
101.475
103.818
99.3526
100.443
99.7545
99.779
99.5346
100.445
99.7362
99.7762
102.641
100.188
98.4795
106.026
98.4678
105.636
102.634
100.601
99.0456
99.0755
99.7472
99.0334
99.7103
100.718
101.426
99.3515
104.003
99.7378
103.956
99.3519
101.571
100.444
99.5395
99.7776
99.8106
99.7392
99.749
100.565
99.4368
99.4418
99.3597
99.06
99.7619
99.3654
99.3253
100.32
110.61
99.182
97.7444
99.5673
110.119
99.1852
99.4986
99.4506
99.7785
99.4202
99.4313
99.4114
99.7457
99.7691
101.025
99.3607
102.546
99.9185
99.5917
99.7928
99.4151
99.23
99.5863
99.3908
99.6931
99.3313
99.4781
99.3592
97.9305
112.324
99.2735
109.334
99.1423
99.4707
99.4683
99.4195
99.5023
99.8413
99.4044
99.694
99.4372
100.409
99.9267
99.6816
99.1507
100.458
99.9265
99.6822
111.087
109.158
100.916
99.3269
113.163
109.798
101.121
100.67
98.8249
100.017
99.8472
100.548
98.8429
100.034
99.8225
101.873
99.4572
97.1798
99.4486
96.9155
99.3416
100.416