/*--------------------------------*- C++ -*----------------------------------*\
| =========                 |                                                 |
| \\      /  F ield         | OpenFOAM: The Open Source CFD Toolbox           |
|  \\    /   O peration     | Version:  5.0                                   |
|   \\  /    A nd           | Web:      www.OpenFOAM.org                      |
|    \\/     M anipulation  |                                                 |
\*---------------------------------------------------------------------------*/
FoamFile
{
    version     2.0;
    format      ascii;
    class       surfaceScalarField;
    location    "1.7";
    object      phi;
}
// * * * * * * * * * * * * * * * * * * * * * * * * * * * * * * * * * * * * * //

dimensions      [0 3 -1 0 0 0 0];

internalField   nonuniform List<scalar> 
25159
(
9.05754e-10
-4.37472e-09
5.30849e-09
1.85901e-09
1.15924e-09
2.13127e-09
-4.91956e-09
-4.61274e-09
-4.45811e-09
3.00979e-09
-2.65377e-10
-3.92716e-09
1.08129e-09
-5.59168e-09
2.16723e-10
9.0428e-10
6.28357e-10
3.10907e-10
-1.42057e-09
1.74107e-09
2.15108e-10
-2.93919e-09
5.88525e-10
-9.45889e-10
-2.21163e-09
4.50778e-09
-1.55169e-09
-5.7901e-11
5.6774e-11
1.73088e-10
-1.75547e-11
-3.80616e-11
1.6036e-10
2.21063e-11
1.06487e-10
-3.77873e-11
-8.12293e-11
-7.31795e-11
1.28278e-09
5.70229e-11
-2.48708e-11
-2.1574e-10
-2.19522e-10
-3.58943e-10
-3.73217e-10
1.32684e-09
4.04234e-11
-3.7688e-13
1.35243e-09
2.59197e-11
6.7766e-13
1.36651e-09
1.68484e-11
9.39446e-14
1.37579e-09
1.08417e-11
-1.24483e-14
1.38191e-09
6.90459e-12
1.08703e-13
1.38371e-09
3.97686e-12
-3.34075e-13
1.38538e-09
2.65182e-12
1.43622e-13
1.38715e-09
1.01441e-12
6.74795e-13
1.38811e-09
1.0911e-12
3.75773e-14
1.38765e-09
3.76732e-13
-3.01276e-13
1.38821e-09
7.93112e-15
-6.23887e-13
1.38846e-09
1.53154e-13
6.07331e-14
1.38856e-09
-1.30856e-15
9.26056e-14
1.38865e-09
1.87848e-13
-1.23647e-13
1.38851e-09
3.00125e-13
-2.2034e-13
1.38875e-09
-2.85939e-13
4.44589e-14
1.38886e-09
4.88608e-14
2.94464e-13
1.38835e-09
-2.63612e-14
-5.42042e-13
1.38834e-09
8.5939e-14
-1.14974e-13
1.38843e-09
-8.31603e-14
4.38051e-14
1.38838e-09
-3.47931e-13
-1.05746e-12
1.3885e-09
-1.16166e-14
-3.96863e-13
1.38779e-09
-9.99257e-13
3.78166e-12
1.38829e-09
-8.72313e-13
2.99043e-12
1.38807e-09
-3.31294e-13
1.58701e-13
1.38883e-09
2.36235e-13
-8.58773e-13
1.38832e-09
1.00828e-13
-2.58272e-13
1.38836e-09
1.1791e-14
1.62522e-14
1.38777e-09
3.37001e-13
1.10021e-13
1.38735e-09
6.47116e-13
-4.78052e-13
1.38976e-09
-4.52545e-12
1.37769e-12
1.38877e-09
6.14878e-13
1.57394e-13
1.38855e-09
2.10184e-13
-2.08379e-14
1.3887e-09
7.81518e-15
-1.89427e-13
1.38981e-09
2.25481e-12
-2.44341e-13
1.38811e-09
3.5066e-12
-1.82992e-12
1.38815e-09
-3.04724e-13
-7.31513e-15
1.38831e-09
3.583e-13
-5.96567e-13
1.38911e-09
-1.28764e-12
3.16635e-13
1.38882e-09
2.16082e-13
1.52595e-13
1.38823e-09
-4.12467e-13
8.52759e-13
1.35873e-12
-1.23732e-12
2.94889e-10
-2.61569e-09
-1.86295e-09
-8.51219e-09
-3.19557e-09
1.67523e-08
-1.83584e-09
-3.20868e-09
1.12908e-10
-1.65694e-09
3.73451e-09
-2.23304e-09
4.2562e-11
-6.69229e-11
3.60109e-10
-4.78267e-09
2.39873e-09
5.25924e-10
5.96523e-11
9.32069e-10
5.73112e-10
2.61442e-09
7.80913e-09
-3.59785e-10
-6.93096e-09
-3.13279e-09
8.84097e-11
1.5836e-10
1.03425e-10
-3.08199e-10
-4.1996e-11
-3.35544e-11
-8.87129e-12
1.67007e-10
1.28625e-11
-3.47971e-11
-5.51227e-11
-6.33301e-11
2.4781e-12
7.24387e-12
4.9151e-12
1.1687e-12
1.26678e-09
-3.26697e-11
-2.5038e-11
-2.16942e-10
-2.12159e-10
-3.63925e-10
-3.59085e-10
1.30911e-09
-1.12735e-12
-9.29775e-13
1.33901e-09
-4.33299e-12
1.95808e-13
1.35748e-09
-1.84677e-12
7.25506e-14
1.3694e-09
-1.28391e-12
6.51338e-14
1.37694e-09
-8.31119e-13
5.98339e-14
1.38145e-09
-6.75775e-13
2.33169e-14
1.38436e-09
-3.93616e-13
2.70195e-14
1.38579e-09
-6.35097e-14
-4.59421e-13
1.38683e-09
-1.1123e-13
6.44272e-14
1.38779e-09
-1.03935e-12
3.67927e-13
1.38795e-09
-2.60114e-13
2.69339e-14
1.38808e-09
-1.42344e-13
9.42753e-14
1.38835e-09
7.78369e-14
-4.10357e-13
1.38842e-09
-2.04494e-14
8.74629e-14
1.38851e-09
4.31788e-13
-2.77883e-13
1.38851e-09
3.8018e-13
-7.01818e-13
1.3886e-09
-6.04404e-14
-2.30527e-14
1.38857e-09
1.11847e-14
-3.91819e-14
1.3886e-09
2.3697e-14
5.24282e-15
1.38852e-09
7.67988e-14
-1.0054e-13
1.38764e-09
-8.46055e-13
1.36349e-12
1.3878e-09
-4.42477e-14
-1.46312e-13
1.3881e-09
3.27088e-13
-1.63773e-12
1.38822e-09
5.57924e-13
-1.5549e-12
1.38926e-09
-3.48128e-12
2.10698e-12
1.38919e-09
-2.75656e-12
3.06378e-12
1.38843e-09
1.09906e-12
-2.42325e-13
1.38863e-09
-5.28733e-14
-1.26439e-13
1.38915e-09
-2.45375e-13
6.14043e-14
1.38949e-09
1.36899e-13
1.73295e-13
1.38732e-09
-1.37034e-12
-9.84018e-13
1.38797e-09
2.78538e-13
-3.07742e-13
1.38784e-09
5.04945e-13
-1.52722e-13
1.38745e-09
1.16491e-12
-7.67546e-13
1.38819e-09
8.7026e-13
6.48303e-13
1.3899e-09
-5.15811e-15
1.81632e-12
1.38889e-09
3.82534e-13
3.20773e-13
1.38882e-09
-9.16684e-14
5.25101e-13
1.38842e-09
2.21133e-13
-1.09837e-12
1.38843e-09
3.07018e-13
-9.89019e-14
1.38855e-09
-9.37886e-14
-4.37387e-13
-2.55026e-13
1.28286e-12
1.73914e-09
-2.90269e-09
-7.4929e-09
2.01364e-09
-1.42161e-09
9.98009e-10
-1.87432e-09
-4.23559e-09
-1.31504e-09
4.17708e-09
4.15393e-09
3.83786e-09
3.71137e-09
-3.31413e-09
2.28496e-09
2.69666e-09
7.16641e-11
7.04499e-10
1.49825e-09
3.84326e-09
-4.9599e-09
-1.0861e-09
-5.85638e-10
7.81378e-10
-8.09048e-10
2.28231e-10
3.85076e-10
-3.45118e-09
3.83914e-09
6.48952e-09
-5.86853e-09
-1.00895e-09
1.29227e-10
1.25939e-10
2.93436e-10
2.95626e-10
-8.44228e-10
-1.0553e-10
6.91105e-12
-2.02661e-11
9.05783e-11
2.83071e-11
1.28166e-09
-1.69927e-11
-3.14833e-11
-2.19002e-10
-2.15624e-10
-3.69086e-10
-3.77694e-10
-2.0265e-11
-2.99987e-11
-3.42467e-11
1.31179e-09
-3.13138e-11
-8.86017e-14
1.3411e-09
-3.37742e-11
-3.18272e-14
1.35866e-09
-1.96298e-11
7.79212e-14
1.37007e-09
-1.28744e-11
3.78147e-14
1.37735e-09
-8.26563e-12
2.9258e-14
1.38178e-09
-5.25534e-12
4.01977e-14
1.38447e-09
-3.23686e-12
4.37969e-14
1.38622e-09
-2.04519e-12
1.32239e-13
1.38743e-09
-1.42031e-12
-6.00843e-15
1.388e-09
-1.85521e-12
1.59524e-13
1.38767e-09
2.99646e-13
-3.07128e-13
1.38816e-09
-6.56672e-13
-4.61613e-14
1.38841e-09
-5.60497e-13
3.16516e-13
1.3886e-09
-2.84361e-13
2.08237e-14
1.38833e-09
3.83737e-13
2.69279e-13
1.38807e-09
1.52832e-13
4.41496e-13
1.38823e-09
-2.42442e-13
-8.46153e-15
1.38834e-09
-1.8897e-13
5.66286e-14
1.38819e-09
6.86541e-14
7.32348e-14
1.38794e-09
-7.55977e-14
3.79841e-13
1.38849e-09
5.98372e-13
-2.01399e-12
1.38895e-09
8.70983e-13
-1.38144e-12
1.38878e-09
4.78829e-13
7.2605e-15
1.3897e-09
6.86283e-13
-1.05965e-12
1.38827e-09
-2.70103e-15
-2.05087e-12
1.38797e-09
1.16819e-13
-2.56847e-12
1.38859e-09
2.88628e-14
4.48967e-13
1.38865e-09
-1.58935e-13
4.59314e-14
1.38862e-09
5.3024e-14
-2.64482e-13
1.38856e-09
-2.44672e-13
4.41868e-13
1.3881e-09
-4.39306e-13
-4.63468e-13
1.38782e-09
-5.10957e-13
1.06855e-12
1.3879e-09
2.55489e-13
1.82918e-13
1.38788e-09
1.8373e-13
1.00033e-12
1.38792e-09
5.86941e-13
2.55164e-13
1.3896e-09
-1.7149e-12
2.70853e-14
1.38948e-09
5.64698e-13
-5.3699e-14
1.38914e-09
5.10018e-14
2.03392e-13
1.38844e-09
1.81968e-13
7.41302e-13
1.38816e-09
6.45602e-13
-4.84569e-14
1.38815e-09
3.37312e-13
-4.25156e-13
-1.9352e-12
8.25936e-13
-1.04231e-08
-1.65848e-09
9.36986e-09
2.54802e-09
-1.48028e-09
-2.75968e-09
-1.39755e-09
3.0895e-09
6.26578e-09
-3.88783e-09
-7.37488e-09
6.57856e-09
-1.58163e-09
3.21822e-09
8.88162e-13
6.42395e-09
2.78589e-09
1.23996e-09
1.19491e-09
-8.21475e-09
-1.34705e-09
-4.86134e-09
-2.31007e-09
3.74029e-10
-2.67775e-10
-6.42558e-10
-4.61426e-10
1.20755e-09
2.66454e-10
1.39312e-09
-1.47645e-09
-7.92323e-10
-1.42367e-10
5.62938e-09
4.3962e-10
-2.03264e-10
4.2742e-10
-1.71507e-11
-6.46626e-10
-3.7571e-11
-1.255e-11
4.04846e-11
-1.43409e-10
1.53046e-10
-3.10174e-11
1.87119e-10
-1.88854e-11
-9.07344e-12
-3.08e-11
-5.6992e-11
-5.73543e-11
1.33425e-09
-8.58071e-11
-2.19868e-11
-2.34563e-10
-2.39689e-10
-3.85988e-10
-3.97595e-10
1.35728e-09
-5.50878e-11
-1.88825e-12
1.37023e-09
-3.32645e-11
5.27992e-13
1.37779e-09
-2.05711e-11
-7.44805e-16
1.3824e-09
-1.30878e-11
9.79204e-14
1.38508e-09
-8.07586e-12
3.2146e-14
1.38653e-09
-4.8112e-12
2.23745e-14
1.38733e-09
-2.96182e-12
9.69496e-15
1.38773e-09
-1.91468e-12
-5.96781e-15
1.38756e-09
-1.38503e-12
-3.90721e-13
1.38869e-09
-1.08472e-12
1.69318e-13
1.38887e-09
-9.51481e-13
4.49803e-14
1.3887e-09
-5.52213e-13
1.02482e-13
1.38858e-09
-2.365e-13
1.54851e-14
1.38866e-09
-3.09479e-13
5.61696e-13
1.38867e-09
-1.94982e-14
1.13368e-13
1.38835e-09
-4.22198e-14
9.05113e-14
1.38833e-09
-1.30187e-13
-7.1376e-14
1.38846e-09
2.17798e-15
-8.87233e-14
1.38868e-09
8.19195e-13
-1.1364e-12
1.38922e-09
1.17539e-12
-1.14103e-12
1.38822e-09
5.57989e-13
1.29751e-12
1.38831e-09
4.80711e-13
-9.30307e-14
1.38819e-09
4.14429e-13
3.84532e-13
1.38829e-09
-1.23301e-13
1.12959e-14
1.38838e-09
4.40814e-14
-1.30874e-14
1.38863e-09
7.23492e-14
-2.94246e-13
1.38843e-09
3.96091e-14
2.89463e-15
1.38866e-09
-1.44931e-13
-3.11596e-14
1.38858e-09
1.3048e-13
-2.90205e-13
1.3881e-09
-3.77902e-13
4.24554e-13
1.38852e-09
-2.87022e-13
-6.43696e-13
1.38864e-09
1.11976e-13
2.45379e-14
1.3886e-09
2.5301e-13
-1.70732e-14
1.3888e-09
6.33346e-13
-2.40715e-13
1.38814e-09
-1.41685e-12
3.69675e-13
1.38866e-09
2.80881e-13
-2.35026e-13
1.38883e-09
1.31813e-13
-2.45934e-13
1.38926e-09
-1.39522e-13
-1.06126e-13
1.3877e-09
2.19832e-12
1.34372e-14
1.38815e-09
-4.33054e-14
-6.69035e-14
-1.87944e-12
3.20019e-13
2.98545e-09
-2.38961e-09
-2.26509e-09
1.86022e-09
1.4159e-09
9.30122e-11
1.73015e-09
-3.19223e-10
2.71688e-09
9.36959e-09
4.18094e-09
-1.91881e-08
1.38177e-09
3.55977e-09
1.07965e-09
3.01168e-08
-2.74799e-08
-1.21185e-08
2.14789e-09
-1.12972e-10
4.53213e-10
2.57321e-10
7.15476e-10
-1.29289e-09
-8.1439e-10
-7.3379e-10
2.84197e-09
3.24789e-09
1.87185e-09
-2.52831e-09
-1.99172e-09
-5.99712e-10
4.69273e-10
9.47256e-10
-5.16647e-12
-4.84567e-10
-9.26796e-10
-3.53634e-11
3.2189e-11
-2.81351e-11
-4.80714e-11
7.9381e-11
-3.38502e-11
2.03673e-10
-2.84403e-11
-4.72707e-12
-3.39943e-11
-6.38899e-11
-6.4688e-11
2.59168e-11
1.39996e-09
-8.09274e-11
-2.64478e-11
-2.55217e-10
-2.61624e-10
-4.22829e-10
-4.38793e-10
1.39554e-09
-4.88274e-11
-2.05015e-12
1.39305e-09
-3.13193e-11
3.82558e-13
1.39077e-09
-1.86061e-11
1.80395e-13
1.39133e-09
-1.44857e-11
7.1996e-13
1.39102e-09
-7.92755e-12
5.68402e-14
1.38976e-09
-2.89224e-12
-7.57693e-13
1.38897e-09
-1.41813e-12
-8.62237e-13
1.38905e-09
-2.07721e-12
-1.00514e-14
1.38888e-09
-1.27781e-12
-3.19081e-14
1.38798e-09
-4.88923e-13
2.17358e-13
1.38936e-09
-3.74649e-12
1.34272e-12
1.38885e-09
-1.56387e-13
4.57643e-14
1.38869e-09
-3.19763e-13
1.8956e-13
1.38879e-09
-1.31998e-13
-3.30233e-13
1.38882e-09
-1.67859e-13
7.598e-14
1.38875e-09
1.73755e-13
-1.78346e-13
1.38889e-09
-3.66295e-13
6.36685e-14
1.38895e-09
-6.33399e-14
-2.17463e-14
1.38874e-09
8.55457e-14
9.19267e-13
1.3881e-09
2.90867e-13
1.50817e-12
1.38813e-09
3.77813e-13
1.36265e-13
1.3888e-09
-5.21625e-14
-1.49378e-13
1.38814e-09
1.66513e-12
-5.95808e-13
1.38825e-09
-1.58022e-13
-7.4533e-14
1.38848e-09
-1.32857e-13
-5.36523e-14
1.38821e-09
1.95939e-13
1.4704e-13
1.38828e-09
2.98379e-14
-5.85784e-14
1.38812e-09
-2.04265e-13
2.16595e-13
1.38815e-09
3.8843e-14
6.42398e-14
1.38833e-09
-1.96319e-13
-3.50044e-13
1.38855e-09
-1.23431e-13
-3.87042e-13
1.38849e-09
2.45232e-13
-6.11563e-14
1.38876e-09
4.61235e-13
-4.72899e-13
1.38905e-09
2.57417e-13
9.35519e-14
1.38839e-09
-3.96587e-13
-3.55902e-13
1.38879e-09
-1.00563e-14
-1.04836e-13
1.38921e-09
-2.3195e-13
-4.90608e-14
1.38924e-09
-1.1702e-12
9.98723e-13
1.38773e-09
4.07735e-12
-3.64615e-13
1.38798e-09
-7.78064e-13
4.88665e-13
-2.21573e-13
-8.09567e-13
-3.66763e-09
6.21156e-09
-1.10581e-09
-1.24713e-09
2.66473e-09
-2.7377e-08
1.30509e-08
7.33642e-10
4.81001e-09
1.79981e-09
2.96121e-09
2.16549e-09
4.53665e-10
-6.94014e-10
-5.6848e-10
1.81918e-10
-2.0391e-10
-1.36917e-09
1.76183e-09
-3.70665e-10
-4.77897e-09
1.68707e-09
-3.09181e-09
7.83599e-09
-1.65229e-09
2.39648e-10
-4.979e-10
-3.01281e-10
-1.6972e-09
2.25674e-09
2.33293e-10
2.07767e-10
-3.18136e-11
-3.02578e-10
-1.06669e-10
-8.65916e-11
6.72788e-11
-6.25904e-11
-1.71767e-11
9.90798e-11
-3.95735e-11
2.27319e-10
-1.32894e-11
-3.31381e-12
2.17954e-11
-3.97478e-11
-7.61796e-11
-7.70099e-11
1.45435e-09
-3.52983e-11
-2.97918e-11
-2.73144e-10
-2.75808e-10
-4.57355e-10
-4.63971e-10
1.42962e-09
-2.18571e-11
-2.44951e-12
1.41349e-09
-1.56612e-11
3.07629e-13
1.40505e-09
-1.00225e-11
-2.8038e-13
1.39804e-09
-6.80826e-12
-7.94082e-13
1.39421e-09
-4.22676e-12
2.46067e-14
1.39288e-09
-2.43875e-12
7.68554e-13
1.39192e-09
-1.50459e-12
9.39364e-13
1.39076e-09
-1.06063e-12
5.16724e-14
1.39005e-09
-1.36852e-12
7.04345e-13
1.39017e-09
-5.12342e-13
-1.76512e-13
1.38835e-09
-9.61094e-13
-1.03975e-12
1.3892e-09
-3.06345e-12
1.99627e-12
1.3887e-09
2.42629e-13
-1.26117e-13
1.38888e-09
-8.41313e-13
4.83686e-13
1.3885e-09
2.13401e-13
-4.91181e-14
1.38834e-09
-8.20122e-15
3.11636e-13
1.38913e-09
9.53714e-13
-2.14271e-12
1.38905e-09
2.22497e-15
-1.56902e-14
1.38905e-09
1.25132e-13
-5.60793e-14
1.38877e-09
7.85762e-13
-2.32229e-13
1.38747e-09
4.15654e-12
-2.49991e-12
1.38774e-09
-4.05184e-13
8.00921e-14
1.38871e-09
-8.47658e-13
1.53018e-12
1.38839e-09
2.00935e-13
-3.70631e-14
1.38822e-09
2.81562e-13
-2.45556e-13
1.38825e-09
7.89705e-13
-6.26178e-13
1.38828e-09
-2.19543e-13
2.15661e-13
1.38836e-09
-1.53226e-13
-1.22962e-13
1.38845e-09
-8.08803e-14
3.3267e-14
1.38844e-09
-6.33167e-13
4.49734e-13
1.38898e-09
-8.61035e-13
2.01428e-13
1.38883e-09
2.84703e-13
1.20689e-13
1.38856e-09
6.756e-13
5.46456e-14
1.38851e-09
3.87891e-13
-7.21786e-14
1.38802e-09
1.46051e-13
-4.73358e-14
1.38789e-09
-3.92956e-14
1.63946e-13
1.38786e-09
-1.75741e-13
-1.48643e-14
1.38745e-09
1.89461e-12
-2.65068e-12
1.39004e-09
1.16332e-12
3.19014e-13
1.38931e-09
-7.58252e-13
7.15095e-13
-7.91756e-13
1.65498e-12
-1.33151e-09
-2.25042e-09
1.09574e-08
-7.18448e-09
-1.66083e-10
1.07347e-09
-1.72568e-09
1.87645e-10
6.30647e-10
-2.30339e-09
-5.04214e-10
-8.02808e-10
5.39024e-09
-1.77982e-09
-1.75411e-09
5.37439e-10
-3.55885e-10
7.232e-10
8.49355e-10
-3.55619e-10
-3.13417e-10
-2.03568e-10
-2.70123e-10
1.14273e-09
1.98574e-10
-9.04682e-10
3.5069e-10
-5.38495e-11
4.09268e-10
-1.38613e-10
3.62376e-11
1.04218e-11
-4.4142e-11
1.36095e-10
-3.86731e-11
2.3326e-12
2.10937e-10
1.69046e-12
9.12666e-12
-3.90297e-11
-7.28079e-11
-7.35758e-11
1.46208e-09
-1.55251e-11
-2.72485e-11
-2.7458e-10
-2.6999e-10
-4.59699e-10
-4.50423e-10
1.43831e-09
3.67149e-12
-1.94673e-12
1.42126e-09
7.32939e-13
4.81644e-13
1.40993e-09
1.19306e-12
-2.9513e-14
1.4023e-09
6.73104e-13
2.52956e-14
1.39745e-09
5.02098e-13
1.03736e-14
1.39445e-09
4.61131e-13
-7.47082e-15
1.39256e-09
2.5961e-13
2.35943e-14
1.39134e-09
3.20947e-14
2.56427e-14
1.39036e-09
2.25467e-13
-7.06554e-13
1.39018e-09
-5.06641e-13
9.75116e-14
1.38969e-09
-3.4337e-13
-2.03287e-13
1.38874e-09
-1.6369e-13
-2.00913e-12
1.3889e-09
-7.12203e-14
9.30462e-14
1.38873e-09
-1.2961e-13
-5.87256e-13
1.38883e-09
8.75642e-15
6.06256e-14
1.38886e-09
2.04454e-13
-2.81445e-13
1.38807e-09
-4.36879e-13
2.14811e-12
1.38839e-09
-2.76671e-13
-6.52523e-14
1.38892e-09
-4.20544e-13
-1.22709e-14
1.38726e-09
5.4996e-12
-3.0705e-12
1.38867e-09
6.58206e-13
2.0762e-12
1.38868e-09
-4.4394e-13
2.23506e-14
1.38838e-09
-1.94145e-13
-3.64776e-13
1.38842e-09
6.61013e-14
9.31951e-14
1.38839e-09
1.99801e-13
1.13451e-13
1.38862e-09
-1.13048e-13
6.67933e-13
1.3885e-09
8.76642e-14
-1.85631e-13
1.38843e-09
-5.52805e-14
-2.8929e-14
1.38853e-09
-5.94414e-14
-1.13165e-13
1.38843e-09
-7.63158e-14
-4.50742e-13
1.38874e-09
-1.47653e-12
3.12574e-13
1.38925e-09
-2.83382e-13
5.95314e-14
1.38824e-09
1.66184e-12
3.06354e-14
1.38816e-09
4.96562e-13
-2.05437e-14
1.38779e-09
3.5066e-13
1.66759e-13
1.38796e-09
-3.05582e-13
1.01368e-13
1.38778e-09
1.70177e-14
-1.32374e-15
1.3883e-09
-9.92127e-13
2.36374e-12
1.38869e-09
7.20233e-13
5.74077e-14
1.38918e-09
2.31254e-14
-1.2629e-12
-2.71742e-13
-1.11841e-12
-4.09855e-10
-1.73541e-09
-4.42e-09
6.75623e-09
1.57732e-09
1.84683e-09
5.61176e-10
3.63421e-09
-7.61953e-09
2.38645e-09
1.09569e-09
2.39813e-09
-4.61199e-10
-2.53536e-09
-2.37688e-09
-3.42596e-10
1.58301e-10
5.65681e-10
2.20955e-10
5.85988e-10
-1.65876e-09
1.60938e-09
-1.6458e-09
2.63068e-09
3.43277e-09
-2.50214e-09
-5.24105e-09
1.67974e-09
-3.71465e-10
-2.20341e-10
1.11081e-09
1.00753e-08
-2.2438e-09
-4.33964e-10
-7.41619e-10
-4.52768e-10
-1.87048e-09
-2.32023e-09
-2.53144e-09
2.18895e-10
2.02951e-10
4.36015e-10
-1.07117e-10
-7.50745e-10
-3.44503e-11
-2.16452e-11
1.31607e-11
-6.42238e-11
1.07159e-10
1.52981e-09
9.2156e-11
-3.65352e-11
-2.75521e-10
-2.85971e-10
-4.73704e-10
-4.90317e-10
-1.07867e-11
-1.34495e-11
-1.61188e-11
-1.95688e-11
1.47057e-09
4.43458e-11
-8.07321e-13
1.44152e-09
3.28081e-11
-2.63612e-13
1.42178e-09
2.03654e-11
-5.63025e-14
1.40968e-09
1.31963e-11
-4.62323e-14
1.4019e-09
8.32136e-12
-1.09764e-14
1.39714e-09
5.15053e-12
-6.62968e-15
1.39415e-09
3.2764e-12
6.48988e-14
1.39218e-09
2.09605e-12
2.87378e-14
1.39126e-09
1.06284e-13
7.47411e-13
1.39092e-09
6.80585e-14
4.14258e-13
1.38953e-09
7.45359e-13
5.91606e-14
1.38936e-09
-9.43018e-14
-1.54708e-13
1.38918e-09
1.71653e-14
-6.46524e-14
1.38898e-09
2.88652e-13
-2.10517e-13
1.38872e-09
-3.3395e-13
4.15312e-13
1.38877e-09
-1.98202e-14
-6.50722e-14
1.38832e-09
-6.63338e-14
6.82788e-13
1.38823e-09
-2.39808e-13
-1.42129e-13
1.38787e-09
1.03526e-13
-4.19121e-14
1.38725e-09
7.19676e-14
1.02514e-13
1.38879e-09
7.20433e-13
3.22087e-12
1.38872e-09
7.78853e-13
-6.07826e-14
1.3894e-09
-3.12791e-12
1.99211e-12
1.38905e-09
1.49968e-13
-4.43969e-15
1.38821e-09
1.09798e-12
-1.90828e-13
1.3883e-09
-2.24535e-14
1.2938e-13
1.38843e-09
6.27366e-15
-2.5261e-13
1.38833e-09
-3.0446e-13
4.94875e-13
1.3885e-09
-2.68723e-13
4.60698e-14
1.38865e-09
-3.14719e-13
1.07836e-13
1.38884e-09
-2.12754e-13
-4.44456e-14
1.38826e-09
-3.33516e-13
-5.62219e-13
1.38781e-09
6.41594e-14
1.0589e-13
1.38876e-09
7.44328e-13
-2.86163e-14
1.38823e-09
1.11661e-12
-7.68931e-14
1.3886e-09
2.32642e-13
-2.44132e-13
1.38828e-09
8.42524e-14
-7.35654e-14
1.38778e-09
5.03987e-13
2.43432e-14
1.38839e-09
-1.36597e-12
-2.28942e-13
1.38829e-09
5.63114e-13
2.5836e-13
1.38938e-09
-2.49756e-12
1.4281e-12
-4.72584e-13
-5.3965e-13
-8.72264e-10
-3.77512e-10
-1.10901e-08
-4.8756e-11
-7.61184e-10
5.67247e-10
2.51717e-09
3.58548e-09
2.9944e-09
4.87437e-09
1.87454e-09
-6.41885e-12
-1.89157e-09
-8.48731e-10
5.0062e-10
-8.16502e-10
-2.35879e-10
2.13486e-09
-1.5831e-09
-6.79879e-10
-1.18093e-09
2.28371e-09
-1.13198e-10
-3.097e-10
-2.30167e-09
6.75123e-09
7.51086e-09
-9.20755e-10
9.79128e-10
-3.92571e-10
4.77545e-10
-3.15623e-08
-1.55688e-09
-5.74192e-09
2.67587e-08
-5.80236e-10
-4.23483e-09
8.20948e-10
-1.22128e-10
4.11625e-09
-5.79329e-11
-8.55053e-12
-5.67753e-12
5.04532e-11
2.17078e-11
1.47472e-09
1.36401e-10
-3.92586e-11
-2.68097e-10
-2.79595e-10
-4.55538e-10
-4.76542e-10
1.43806e-09
8.13346e-11
-5.24674e-13
1.4195e-09
5.12082e-11
-2.23868e-14
1.40799e-09
3.17047e-11
5.21863e-15
1.40093e-09
2.00992e-11
7.3209e-16
1.39643e-09
1.26577e-11
1.69134e-14
1.39382e-09
7.61024e-12
2.95203e-14
1.39203e-09
4.91605e-12
3.53447e-14
1.3914e-09
2.20396e-12
4.13295e-13
1.39028e-09
1.91126e-12
-7.80185e-13
1.38957e-09
1.12009e-12
-4.22813e-13
1.3895e-09
8.37348e-13
-9.94498e-14
1.38912e-09
1.79515e-13
3.46477e-14
1.38894e-09
6.76249e-14
6.24059e-14
1.38867e-09
5.76135e-13
-7.18363e-14
1.38863e-09
-4.8967e-14
-2.89611e-13
1.38833e-09
2.04462e-13
3.30596e-14
1.38861e-09
2.03078e-13
-5.87364e-13
1.38849e-09
-1.76646e-13
2.5296e-14
1.38853e-09
-9.72307e-14
1.32723e-13
1.38867e-09
-1.46792e-14
-7.32739e-14
1.3889e-09
3.7684e-13
9.60759e-14
1.38881e-09
1.83678e-13
6.71291e-13
1.38797e-09
-3.23286e-13
-1.98372e-12
1.38809e-09
2.03038e-13
-1.74909e-13
1.3889e-09
9.81703e-13
-6.9474e-13
1.38801e-09
-1.16379e-14
8.69696e-13
1.38825e-09
1.13923e-13
-3.43343e-13
1.38815e-09
2.90103e-13
-4.97215e-13
1.38867e-09
-2.4532e-12
1.67485e-12
1.3888e-09
-4.99959e-13
5.49452e-14
1.38845e-09
8.30082e-13
-6.8569e-13
1.38854e-09
-3.45834e-13
-7.22867e-14
1.3889e-09
-3.12751e-13
1.93889e-14
1.38849e-09
2.33788e-12
-1.17588e-12
1.38815e-09
1.98688e-12
-5.24422e-13
1.38805e-09
3.01961e-13
3.9569e-14
1.3887e-09
-9.41969e-13
3.77581e-13
1.38906e-09
-9.57928e-14
2.39826e-13
1.38791e-09
1.05092e-13
-3.16162e-13
1.38821e-09
3.99585e-13
-1.26678e-13
1.38806e-09
8.33959e-13
-3.18493e-12
-2.5752e-12
1.25607e-13
-2.6838e-09
1.84116e-08
-2.15613e-09
-2.43713e-09
-1.73278e-09
1.08331e-09
4.998e-10
2.09758e-09
-1.26163e-09
-1.5867e-10
-2.14629e-09
-2.79791e-09
3.58991e-10
-2.30101e-09
9.49363e-10
4.4893e-10
5.43728e-10
5.57712e-10
1.02233e-09
1.38733e-09
-2.96746e-11
-2.9377e-09
-5.48378e-10
4.06471e-09
1.57097e-09
-3.39309e-09
-2.08529e-10
-4.20294e-10
-4.74606e-10
-5.9078e-10
2.73936e-10
-4.89085e-10
1.46625e-09
1.07632e-09
-2.32742e-09
-3.33817e-11
-5.50625e-12
2.07724e-10
4.56889e-11
-1.74339e-11
-3.78731e-11
-6.21274e-11
-7.63944e-11
-5.67353e-12
-6.71361e-12
-8.30974e-12
1.39244e-09
-3.62174e-11
-2.51019e-10
-2.52249e-10
-4.30765e-10
-4.3351e-10
1.38978e-09
-5.1667e-13
1.3887e-09
-3.03286e-13
1.38901e-09
-2.95494e-14
1.38852e-09
1.15059e-13
1.38778e-09
-7.21269e-14
1.38931e-09
3.45794e-13
1.38957e-09
-9.48612e-14
1.38877e-09
-6.96087e-13
1.38837e-09
-3.37916e-15
1.38926e-09
4.01381e-13
1.38917e-09
8.04922e-13
1.38882e-09
-9.81984e-14
1.38858e-09
-3.41368e-14
1.38866e-09
2.15284e-13
1.38852e-09
2.89202e-14
1.38856e-09
5.99245e-14
1.3885e-09
-2.78321e-13
1.38869e-09
6.47221e-13
1.3884e-09
1.54772e-13
1.38835e-09
-6.11618e-14
1.38889e-09
1.25239e-12
1.38893e-09
3.94996e-13
1.38862e-09
-2.10068e-12
1.38758e-09
-1.39758e-12
1.38802e-09
9.26056e-13
1.38847e-09
-6.12464e-13
1.38855e-09
7.06514e-13
1.38872e-09
5.44075e-14
1.38814e-09
-1.71824e-12
1.38795e-09
-4.60773e-14
1.3888e-09
7.25775e-13
1.38855e-09
1.34289e-13
1.3885e-09
-2.11782e-13
1.38956e-09
1.32251e-12
1.3882e-09
2.35674e-13
1.38856e-09
-2.30825e-14
1.38832e-09
-4.20868e-13
1.3885e-09
-1.79346e-13
1.38875e-09
3.72005e-14
1.38933e-09
-2.51154e-13
1.38843e-09
1.88795e-12
-7.1653e-14
1.35002e-08
-4.45542e-09
-2.63128e-10
4.37148e-09
1.79824e-10
-5.20515e-09
4.26021e-09
-7.88525e-10
3.05991e-09
1.51905e-09
4.08476e-09
-1.71596e-09
1.03164e-08
-6.86454e-09
1.20065e-08
-5.69385e-09
-4.40151e-09
-1.17738e-08
9.59945e-09
2.32185e-09
1.24514e-09
2.36114e-09
3.4457e-09
2.254e-10
-1.3897e-09
-3.38541e-10
1.74712e-09
1.19979e-09
-6.83321e-09
-1.59979e-09
-2.62073e-09
6.44903e-09
-5.92419e-10
5.00694e-10
-6.37191e-10
-1.26119e-11
2.16052e-10
7.20322e-11
-1.44234e-10
-2.48683e-10
4.85694e-10
6.66372e-11
2.78377e-10
-7.85901e-11
-1.36227e-10
-6.80102e-11
2.14318e-09
8.84352e-11
2.57927e-11
-5.02624e-10
-5.2236e-10
-5.0245e-10
-5.22405e-10
2.21197e-09
6.29939e-11
4.03498e-13
2.25471e-09
4.03036e-11
-3.28805e-13
2.27794e-09
2.62238e-11
-1.48041e-13
2.29343e-09
1.68772e-11
-5.61796e-13
2.30358e-09
1.07466e-11
-5.15978e-13
2.30676e-09
6.24296e-12
7.6809e-13
2.30962e-09
4.14693e-12
1.68243e-13
2.31238e-09
2.91885e-12
-1.67257e-13
2.31397e-09
1.69663e-12
-1.15543e-14
2.31348e-09
6.37811e-13
-2.81133e-13
2.31417e-09
6.79152e-13
-2.71369e-13
2.31466e-09
2.48253e-13
-7.56273e-14
2.31494e-09
1.26744e-13
-7.86803e-14
2.3149e-09
-1.23896e-13
-3.8601e-14
2.31474e-09
-3.65133e-13
2.8284e-13
2.31517e-09
-2.76654e-13
-1.95649e-14
2.31526e-09
1.34659e-13
-3.12293e-13
2.31449e-09
8.77986e-15
-1.20072e-12
2.31459e-09
1.16682e-13
1.31401e-13
2.31484e-09
-1.93788e-13
2.15901e-14
2.3143e-09
-6.68035e-13
4.90904e-13
2.31448e-09
3.57545e-14
-2.50179e-13
2.31348e-09
5.02355e-12
-1.22225e-12
2.31403e-09
4.19122e-12
-3.11225e-12
2.31409e-09
-3.99005e-13
-2.60659e-13
2.31531e-09
4.39031e-13
-1.67486e-12
2.31453e-09
2.63709e-13
1.84365e-13
2.31439e-09
3.71992e-13
-5.39732e-14
2.31341e-09
9.10435e-13
5.25618e-14
2.31288e-09
-1.05124e-12
6.77952e-13
2.31622e-09
-6.30668e-13
-2.22464e-12
2.31513e-09
1.1229e-12
-1.2686e-13
2.31464e-09
3.75997e-13
4.27939e-14
2.31491e-09
-3.31951e-14
-6.08189e-14
2.31656e-09
1.61777e-12
-1.29102e-13
2.31403e-09
3.93259e-12
-3.30964e-12
2.31418e-09
-5.3447e-13
-4.23557e-14
2.3142e-09
-1.2227e-12
5.54035e-13
2.31538e-09
-1.50911e-12
4.05183e-13
2.315e-09
2.47274e-13
1.93448e-13
2.31389e-09
8.79727e-13
9.26467e-13
-6.36911e-13
-4.39971e-13
5.1453e-09
-7.88484e-09
2.22932e-09
-3.08164e-10
2.80454e-09
8.57111e-10
7.20464e-09
5.0848e-09
-2.52098e-09
-1.45668e-08
6.2518e-09
-1.12542e-09
2.23875e-08
-2.21888e-08
-5.91895e-09
2.73947e-09
1.00463e-09
-4.00416e-09
-2.68046e-09
8.85947e-09
2.55073e-10
-1.36722e-09
1.00224e-09
-8.93094e-10
-5.81298e-10
2.60431e-10
3.88165e-10
-1.48345e-10
-1.63669e-10
-6.45088e-10
5.23116e-10
1.3697e-09
7.54316e-09
-3.31264e-10
-1.4577e-09
1.69289e-09
-4.97323e-09
-2.47386e-09
1.97905e-09
8.58942e-10
-6.59683e-11
2.84914e-10
-1.91666e-09
-1.14028e-09
-1.3472e-10
1.73763e-11
-1.82893e-11
5.13086e-10
-6.63944e-11
-1.09696e-10
-1.53283e-10
-1.05997e-10
1.65602e-11
1.77605e-11
1.21565e-11
1.14405e-11
2.12122e-09
-5.46347e-11
2.51432e-11
-5.09987e-10
-5.04319e-10
-5.10026e-10
-5.04279e-10
2.18553e-09
-3.54392e-12
9.60915e-13
2.23413e-09
-8.30142e-12
-1.53414e-13
2.26403e-09
-3.87949e-12
-5.16803e-14
2.28347e-09
-2.73778e-12
-5.49467e-14
2.29579e-09
-1.76226e-12
-3.51506e-14
2.30319e-09
-1.39939e-12
2.41275e-15
2.30798e-09
-8.4691e-13
-3.31414e-15
2.31032e-09
-5.59688e-13
4.50298e-13
2.31211e-09
-2.53815e-13
2.12222e-14
2.31352e-09
-3.54831e-13
-2.45697e-13
2.31387e-09
3.72625e-13
-1.79225e-13
2.31415e-09
-3.59546e-14
-5.67449e-14
2.31456e-09
-1.30392e-12
4.79865e-13
2.31458e-09
-7.41864e-14
-9.5908e-14
2.3147e-09
-1.22754e-12
3.62833e-13
2.31486e-09
-1.7384e-12
5.04698e-13
2.31486e-09
-1.08429e-13
1.4962e-13
2.31474e-09
-3.22568e-15
2.84714e-14
2.31479e-09
-4.05271e-16
1.00929e-14
2.31466e-09
-2.69137e-13
6.64996e-14
2.31326e-09
4.45962e-12
-2.4014e-12
2.31333e-09
-8.55615e-14
-1.16924e-13
2.31418e-09
6.04378e-13
1.91027e-12
2.31438e-09
8.52822e-13
1.57292e-12
2.31587e-09
-2.60839e-12
2.81483e-12
2.31581e-09
1.18414e-12
2.37874e-12
2.31466e-09
1.05484e-12
1.22567e-13
2.3148e-09
-1.45843e-14
1.19828e-13
2.31559e-09
5.53202e-13
-3.63628e-13
2.31597e-09
-5.69395e-13
-6.79052e-13
2.31306e-09
-1.02703e-12
2.33277e-12
2.31348e-09
3.97195e-13
1.57003e-14
2.31337e-09
1.8114e-13
1.57591e-13
2.31287e-09
8.14306e-14
-3.63919e-13
2.31411e-09
1.18522e-12
-1.44494e-13
2.31652e-09
-7.58687e-15
3.35279e-12
2.31519e-09
1.78589e-12
-6.55014e-13
2.31507e-09
-6.40917e-14
-5.01385e-13
2.31446e-09
3.96063e-13
-2.38744e-12
2.31438e-09
4.69577e-13
-2.31221e-13
2.31458e-09
9.39499e-13
-6.93655e-13
-3.7482e-13
2.45217e-13
-1.98139e-09
-3.12601e-09
-5.58293e-09
1.924e-09
-1.2571e-09
4.50406e-10
-1.33791e-09
2.61147e-10
-2.22789e-09
-3.62718e-09
-2.00355e-09
2.31699e-09
4.02405e-09
-6.7803e-10
-8.08713e-10
-5.13875e-10
-6.91082e-10
1.31915e-08
1.01726e-10
9.78548e-10
-1.77256e-08
4.18166e-09
-7.2789e-10
-2.38903e-09
-6.1514e-10
-1.16736e-09
-1.91461e-09
-1.44684e-09
-7.93328e-09
-2.98857e-09
3.1488e-09
1.68853e-10
1.25975e-08
3.09926e-09
-5.59333e-10
9.73535e-09
-1.14734e-09
1.25291e-09
-2.43555e-09
-4.79852e-09
-2.60685e-09
5.05602e-09
8.59078e-10
-6.20741e-10
1.86892e-10
3.41494e-11
-5.5154e-09
-6.17852e-11
-1.08758e-10
-7.29299e-12
-1.98573e-12
6.54665e-11
1.14356e-10
2.14147e-09
-4.10657e-11
3.12186e-11
-5.1657e-10
-5.25706e-10
-5.16588e-10
-5.25625e-10
-4.62215e-11
-4.1046e-11
-4.62266e-11
2.19058e-09
-5.32648e-11
1.60092e-13
2.2378e-09
-5.59817e-11
8.6975e-14
2.26642e-09
-3.26874e-11
-5.21604e-14
2.28492e-09
-2.14654e-11
-2.05844e-14
2.29671e-09
-1.3784e-11
-1.08396e-14
2.30387e-09
-8.74964e-12
-1.81681e-14
2.30824e-09
-5.38941e-12
-1.7725e-14
2.31104e-09
-3.40396e-12
-4.11624e-14
2.31296e-09
-2.33839e-12
-5.73059e-14
2.31411e-09
-1.77449e-12
2.33026e-13
2.3135e-09
6.97606e-14
4.38915e-13
2.31435e-09
-1.1376e-12
5.02142e-14
2.31459e-09
-9.30557e-13
-4.28469e-13
2.31498e-09
-5.68e-13
7.48749e-15
2.3145e-09
-8.04939e-13
2.1939e-13
2.31405e-09
-1.8936e-13
-7.41353e-13
2.31419e-09
-3.10114e-13
-2.55742e-14
2.31439e-09
-1.77147e-13
-2.98539e-14
2.31403e-09
3.37711e-13
4.04525e-14
2.31355e-09
9.16494e-13
-3.73584e-13
2.31467e-09
-7.1488e-13
2.00156e-12
2.31545e-09
-3.69661e-12
1.42881e-12
2.31518e-09
1.00688e-12
-1.44567e-13
2.31678e-09
-2.66541e-12
8.4274e-13
2.31457e-09
2.31616e-13
-2.68633e-12
2.31378e-09
2.59555e-13
-8.47765e-13
2.31467e-09
7.30845e-13
-1.23413e-13
2.31489e-09
-1.61393e-13
-1.61215e-14
2.31477e-09
7.45084e-14
3.43768e-13
2.31471e-09
-2.10401e-13
1.50558e-13
2.31395e-09
-6.93657e-13
-3.35422e-14
2.31327e-09
3.16309e-12
-9.99418e-13
2.31334e-09
2.89316e-13
1.89633e-14
2.31345e-09
6.56875e-13
3.26397e-13
2.31405e-09
1.10254e-12
-2.46382e-13
2.31621e-09
-2.30099e-12
1.66832e-13
2.31605e-09
1.45808e-12
4.45987e-13
2.3156e-09
8.69669e-13
-2.70315e-13
2.31445e-09
3.35839e-13
1.96433e-12
2.31381e-09
9.86311e-13
7.58567e-14
2.31396e-09
5.55205e-13
-1.85015e-13
-2.53423e-12
1.50115e-12
-2.56856e-10
-2.96414e-09
1.81469e-08
-1.74442e-08
3.29287e-09
-6.21936e-10
-1.27206e-08
7.91418e-09
5.03127e-10
1.83257e-09
4.62465e-11
3.07456e-09
-3.32097e-09
-2.02312e-09
9.13664e-09
1.69054e-09
-7.35334e-09
-1.7695e-09
5.71807e-10
2.72722e-10
-5.22069e-10
-3.67327e-12
-8.03605e-10
1.26095e-10
2.00278e-09
-1.03101e-09
2.38838e-09
-1.18806e-09
-1.09047e-10
-1.49873e-09
5.71147e-10
1.57592e-09
-3.83521e-10
4.05289e-09
-3.65477e-09
6.88868e-10
7.23987e-11
-5.06514e-10
7.00253e-10
8.37129e-10
1.07186e-09
1.51175e-09
-6.66334e-09
-2.36863e-10
3.71452e-09
4.78055e-09
-2.39845e-09
1.27297e-09
1.85183e-10
-2.06599e-09
1.85398e-09
-8.88472e-11
-1.15729e-09
-1.4315e-10
1.91777e-10
3.6495e-12
2.47945e-11
-1.88411e-10
1.1134e-10
-1.32466e-10
5.55486e-10
-5.78376e-11
3.42829e-12
7.12527e-13
-1.33776e-10
-1.37537e-10
-1.3909e-10
2.2336e-09
-1.39592e-10
2.23052e-11
-5.40396e-10
-5.55545e-10
-5.40422e-10
-5.55579e-10
2.26353e-09
-9.01097e-11
1.92948e-12
2.28589e-09
-5.43324e-11
-5.04833e-13
2.29776e-09
-3.36228e-11
8.83098e-15
2.30515e-09
-2.12869e-11
-4.83281e-14
2.30939e-09
-1.31851e-11
-5.44029e-15