/*--------------------------------*- C++ -*----------------------------------*\
| =========                 |                                                 |
| \\      /  F ield         | OpenFOAM: The Open Source CFD Toolbox           |
|  \\    /   O peration     | Version:  5.0                                   |
|   \\  /    A nd           | Web:      www.OpenFOAM.org                      |
|    \\/     M anipulation  |                                                 |
\*---------------------------------------------------------------------------*/
FoamFile
{
    version     2.0;
    format      ascii;
    class       volScalarField;
    location    "1.7";
    object      rAU;
}
// * * * * * * * * * * * * * * * * * * * * * * * * * * * * * * * * * * * * * //

dimensions      [-1 3 1 0 0 0 0];

internalField   nonuniform List<scalar> 
8409
(
9.67567e-07
8.97474e-07
8.90841e-07
6.52755e-07
8.94323e-07
6.46334e-07
1.29267e-07
3.9242e-07
3.93663e-07
3.94697e-07
3.9573e-07
3.96763e-07
3.97795e-07
3.98826e-07
3.99857e-07
4.00886e-07
4.01916e-07
4.02944e-07
4.03971e-07
4.04999e-07
4.06025e-07
4.0705e-07
4.08075e-07
4.09099e-07
4.10122e-07
4.11145e-07
4.12167e-07
4.13188e-07
4.14208e-07
4.15228e-07
4.16246e-07
4.17264e-07
4.18281e-07
4.19298e-07
4.20314e-07
4.21328e-07
4.22342e-07
4.23356e-07
4.24368e-07
4.25379e-07
4.2639e-07
4.274e-07
4.28409e-07
4.29418e-07
4.30425e-07
4.31432e-07
4.32438e-07
4.33442e-07
4.34446e-07
4.36222e-07
8.90445e-07
8.68998e-07
6.94483e-07
8.99147e-07
8.77877e-07
5.60019e-07
1.29215e-07
3.92423e-07
3.93664e-07
3.94698e-07
3.95731e-07
3.96763e-07
3.97795e-07
3.98826e-07
3.99857e-07
4.00886e-07
4.01916e-07
4.02944e-07
4.03971e-07
4.04999e-07
4.06025e-07
4.0705e-07
4.08075e-07
4.09099e-07
4.10122e-07
4.11145e-07
4.12167e-07
4.13188e-07
4.14208e-07
4.15228e-07
4.16246e-07
4.17264e-07
4.18281e-07
4.19298e-07
4.20314e-07
4.21328e-07
4.22342e-07
4.23356e-07
4.24368e-07
4.25379e-07
4.2639e-07
4.274e-07
4.28409e-07
4.29418e-07
4.30425e-07
4.31431e-07
4.32438e-07
4.33442e-07
4.34446e-07
4.36222e-07
9.54607e-07
8.84951e-07
4.33944e-07
4.85621e-07
8.88618e-07
6.86831e-07
3.82642e-08
3.9229e-07
3.93665e-07
3.94698e-07
3.95731e-07
3.96763e-07
3.97795e-07
3.98826e-07
3.99857e-07
4.00886e-07
4.01916e-07
4.02944e-07
4.03971e-07
4.04999e-07
4.06025e-07
4.0705e-07
4.08075e-07
4.09099e-07
4.10122e-07
4.11145e-07
4.12167e-07
4.13188e-07
4.14208e-07
4.15227e-07
4.16246e-07
4.17264e-07
4.18281e-07
4.19298e-07
4.20314e-07
4.21328e-07
4.22342e-07
4.23356e-07
4.24368e-07
4.25379e-07
4.2639e-07
4.274e-07
4.28409e-07
4.29418e-07
4.30425e-07
4.31431e-07
4.32438e-07
4.33442e-07
4.34446e-07
4.36222e-07
8.83696e-07
7.22021e-07
8.01839e-07
9.65262e-07
7.02386e-07
6.83388e-07
3.13267e-07
1.29779e-07
3.93455e-07
3.94697e-07
3.95731e-07
3.96763e-07
3.97795e-07
3.98826e-07
3.99857e-07
4.00886e-07
4.01916e-07
4.02944e-07
4.03971e-07
4.04999e-07
4.06025e-07
4.0705e-07
4.08075e-07
4.09099e-07
4.10122e-07
4.11145e-07
4.12167e-07
4.13188e-07
4.14208e-07
4.15227e-07
4.16246e-07
4.17264e-07
4.18281e-07
4.19298e-07
4.20314e-07
4.21328e-07
4.22342e-07
4.23356e-07
4.24368e-07
4.25379e-07
4.2639e-07
4.274e-07
4.28409e-07
4.29418e-07
4.30425e-07
4.31432e-07
4.32438e-07
4.33442e-07
4.34446e-07
4.36222e-07
8.96895e-07
7.50911e-07
6.20663e-07
8.97336e-07
8.85936e-07
6.95975e-07
6.97052e-07
1.2972e-07
3.93453e-07
3.94696e-07
3.9573e-07
3.96763e-07
3.97795e-07
3.98826e-07
3.99857e-07
4.00886e-07
4.01916e-07
4.02944e-07
4.03971e-07
4.04999e-07
4.06025e-07
4.0705e-07
4.08075e-07
4.09099e-07
4.10122e-07
4.11145e-07
4.12167e-07
4.13188e-07
4.14208e-07
4.15228e-07
4.16246e-07
4.17264e-07
4.18281e-07
4.19298e-07
4.20314e-07
4.21328e-07
4.22342e-07
4.23356e-07
4.24368e-07
4.25379e-07
4.2639e-07
4.274e-07
4.28409e-07
4.29418e-07
4.30425e-07
4.31432e-07
4.32438e-07
4.33442e-07
4.34446e-07
4.36222e-07
8.91567e-07
8.67419e-07
2.09306e-07
8.96226e-07
8.96149e-07
5.65515e-07
6.9837e-07
1.2972e-07
3.93452e-07
3.94696e-07
3.9573e-07
3.96762e-07
3.97794e-07
3.98826e-07
3.99856e-07
4.00886e-07
4.01916e-07
4.02944e-07
4.03971e-07
4.04999e-07
4.06025e-07
4.0705e-07
4.08075e-07
4.09099e-07
4.10122e-07
4.11145e-07
4.12167e-07
4.13188e-07
4.14208e-07
4.15227e-07
4.16246e-07
4.17264e-07
4.18281e-07
4.19298e-07
4.20314e-07
4.21328e-07
4.22342e-07
4.23356e-07
4.24368e-07
4.25379e-07
4.2639e-07
4.274e-07
4.28409e-07
4.29418e-07
4.30425e-07
4.31432e-07
4.32438e-07
4.33442e-07
4.34446e-07
4.36222e-07
8.77053e-07
3.03386e-07
1.20018e-07
6.93794e-07
3.83183e-07
6.89022e-07
6.95415e-07
1.29724e-07
3.93452e-07
3.94696e-07
3.9573e-07
3.96762e-07
3.97794e-07
3.98826e-07
3.99856e-07
4.00886e-07
4.01916e-07
4.02944e-07
4.03971e-07
4.04999e-07
4.06025e-07
4.0705e-07
4.08075e-07
4.09099e-07
4.10122e-07
4.11145e-07
4.12167e-07
4.13188e-07
4.14208e-07
4.15227e-07
4.16246e-07
4.17264e-07
4.18281e-07
4.19298e-07
4.20314e-07
4.21328e-07
4.22342e-07
4.23356e-07
4.24368e-07
4.25379e-07
4.2639e-07
4.274e-07
4.28409e-07
4.29418e-07
4.30425e-07
4.31432e-07
4.32438e-07
4.33442e-07
4.34446e-07
4.36222e-07
8.94009e-07
3.29736e-07
7.99463e-07
1.61033e-07
8.3902e-07
6.85881e-07
1.2579e-07
3.92284e-07
3.93661e-07
3.94695e-07
3.9573e-07
3.96762e-07
3.97794e-07
3.98826e-07
3.99856e-07
4.00886e-07
4.01916e-07
4.02944e-07
4.03971e-07
4.04999e-07
4.06025e-07
4.0705e-07
4.08075e-07
4.09099e-07
4.10122e-07
4.11145e-07
4.12167e-07
4.13188e-07
4.14208e-07
4.15227e-07
4.16246e-07
4.17264e-07
4.18281e-07
4.19298e-07
4.20314e-07
4.21328e-07
4.22342e-07
4.23356e-07
4.24368e-07
4.25379e-07
4.2639e-07
4.274e-07
4.28409e-07
4.29418e-07
4.30425e-07
4.31432e-07
4.32438e-07
4.33442e-07
4.34446e-07
4.36222e-07
9.67951e-07
8.57433e-07
2.50558e-07
6.68411e-07
8.12044e-07
5.54083e-07
3.60036e-08
3.92416e-07
3.93661e-07
3.94695e-07
3.9573e-07
3.96762e-07
3.97794e-07
3.98826e-07
3.99856e-07
4.00886e-07
4.01916e-07
4.02944e-07
4.03971e-07
4.04999e-07
4.06025e-07
4.0705e-07
4.08075e-07
4.09099e-07
4.10122e-07
4.11145e-07
4.12167e-07
4.13188e-07
4.14208e-07
4.15227e-07
4.16246e-07
4.17264e-07
4.18281e-07
4.19298e-07
4.20314e-07
4.21328e-07
4.22342e-07
4.23356e-07
4.24368e-07
4.25379e-07
4.2639e-07
4.274e-07
4.28409e-07
4.29418e-07
4.30425e-07
4.31431e-07
4.32438e-07
4.33442e-07
4.34446e-07
4.36222e-07
9.58996e-07
8.76951e-07
1.98136e-07
1.84439e-07
7.8118e-07
6.82949e-07
1.2921e-07
3.92416e-07
3.93661e-07
3.94696e-07
3.9573e-07
3.96762e-07
3.97794e-07
3.98826e-07
3.99856e-07
4.00886e-07
4.01916e-07
4.02944e-07
4.03971e-07
4.04999e-07
4.06025e-07
4.0705e-07
4.08075e-07
4.09099e-07
4.10122e-07
4.11145e-07
4.12167e-07
4.13188e-07
4.14208e-07
4.15228e-07
4.16246e-07
4.17264e-07
4.18281e-07
4.19298e-07
4.20314e-07
4.21328e-07
4.22342e-07
4.23356e-07
4.24368e-07
4.25379e-07
4.2639e-07
4.274e-07
4.28409e-07
4.29418e-07
4.30425e-07
4.31432e-07
4.32438e-07
4.33442e-07
4.34446e-07
4.36222e-07
9.79315e-07
9.66478e-07
9.03931e-07
5.56669e-07
9.22916e-07
7.39644e-07
1.83334e-07
5.04898e-07
5.06386e-07
5.07527e-07
5.08665e-07
5.09803e-07
5.10938e-07
5.12072e-07
5.13204e-07
5.14335e-07
5.15464e-07
5.16591e-07
5.17717e-07
5.18841e-07
5.19964e-07
5.21085e-07
5.22204e-07
5.23321e-07
5.24438e-07
5.25551e-07
5.26665e-07
5.27776e-07
5.28885e-07
5.29993e-07
5.31099e-07
5.32203e-07
5.33306e-07
5.34408e-07
5.35507e-07
5.36605e-07
5.37702e-07
5.38795e-07
5.39889e-07
5.4098e-07
5.42069e-07
5.43157e-07
5.44244e-07
5.45328e-07
5.46411e-07
5.47493e-07
5.48571e-07
5.4965e-07
5.50726e-07
5.53041e-07
9.64151e-07
8.98137e-07
7.08026e-07
9.02932e-07
9.25573e-07
7.07594e-07
1.83234e-07
5.04904e-07
5.0639e-07
5.0753e-07
5.08667e-07
5.09804e-07
5.10939e-07
5.12072e-07
5.13205e-07
5.14335e-07
5.15464e-07
5.16591e-07
5.17717e-07
5.18841e-07
5.19964e-07
5.21085e-07
5.22203e-07
5.23321e-07
5.24438e-07
5.25552e-07
5.26665e-07
5.27776e-07
5.28885e-07
5.29993e-07
5.31099e-07
5.32203e-07
5.33306e-07
5.34408e-07
5.35507e-07
5.36605e-07
5.37702e-07
5.38795e-07
5.39889e-07
5.4098e-07
5.42069e-07
5.43157e-07
5.44244e-07
5.45328e-07
5.46411e-07
5.47492e-07
5.48571e-07
5.4965e-07
5.50726e-07
5.53041e-07
9.66105e-07
6.58642e-07
4.24314e-07
8.19837e-07
8.95813e-07
6.88855e-07
5.66764e-08
5.04684e-07
5.06392e-07
5.0753e-07
5.08667e-07
5.09804e-07
5.10939e-07
5.12072e-07
5.13205e-07
5.14335e-07
5.15464e-07
5.16591e-07
5.17717e-07
5.18841e-07
5.19964e-07
5.21085e-07
5.22203e-07
5.23321e-07
5.24438e-07
5.25552e-07
5.26665e-07
5.27776e-07
5.28885e-07
5.29993e-07
5.31099e-07
5.32203e-07
5.33306e-07
5.34408e-07
5.35507e-07
5.36605e-07
5.37702e-07
5.38795e-07
5.39889e-07
5.4098e-07
5.42069e-07
5.43157e-07
5.44244e-07
5.45328e-07
5.46411e-07
5.47492e-07
5.48571e-07
5.4965e-07
5.50726e-07
5.53041e-07
9.09115e-07
9.05259e-07
7.83088e-07
9.598e-07
8.61746e-07
6.88429e-07
3.96502e-07
1.84067e-07
5.06042e-07
5.07529e-07
5.08666e-07
5.09803e-07
5.10939e-07
5.12072e-07
5.13204e-07
5.14335e-07
5.15464e-07
5.16591e-07
5.17717e-07
5.18841e-07
5.19964e-07
5.21085e-07
5.22203e-07
5.23321e-07
5.24438e-07
5.25552e-07
5.26665e-07
5.27776e-07
5.28885e-07
5.29993e-07
5.31099e-07
5.32203e-07
5.33306e-07
5.34408e-07
5.35507e-07
5.36605e-07
5.37702e-07
5.38795e-07
5.39889e-07
5.4098e-07
5.42069e-07
5.43157e-07
5.44244e-07
5.45328e-07
5.46411e-07
5.47492e-07
5.48571e-07
5.49649e-07
5.50726e-07
5.53041e-07
7.54839e-07
7.00633e-07
2.46655e-07
7.06429e-07
8.17856e-07
7.10681e-07
7.72064e-07
1.83947e-07
5.06035e-07
5.07525e-07
5.08664e-07
5.09802e-07
5.10938e-07
5.12071e-07
5.13204e-07
5.14335e-07
5.15464e-07
5.16591e-07
5.17717e-07
5.18841e-07
5.19964e-07
5.21085e-07
5.22203e-07
5.23321e-07
5.24438e-07
5.25551e-07
5.26665e-07
5.27776e-07
5.28885e-07
5.29993e-07
5.31099e-07
5.32203e-07
5.33306e-07
5.34408e-07
5.35507e-07
5.36605e-07
5.37702e-07
5.38795e-07
5.39889e-07
5.4098e-07
5.42069e-07
5.43157e-07
5.44244e-07
5.45328e-07
5.46411e-07
5.47492e-07
5.48571e-07
5.49649e-07
5.50726e-07
5.53041e-07
4.84954e-07
8.08833e-07
8.40962e-07
9.09296e-07
8.93315e-07
5.71125e-07
7.73084e-07
1.83946e-07
5.06032e-07
5.07524e-07
5.08663e-07
5.09801e-07
5.10938e-07
5.12071e-07
5.13204e-07
5.14335e-07
5.15463e-07
5.16591e-07
5.17717e-07
5.18841e-07
5.19964e-07
5.21085e-07
5.22203e-07
5.23321e-07
5.24438e-07
5.25551e-07
5.26665e-07
5.27776e-07
5.28885e-07
5.29993e-07
5.31099e-07
5.32203e-07
5.33306e-07
5.34408e-07
5.35507e-07
5.36605e-07
5.37702e-07
5.38795e-07
5.39889e-07
5.4098e-07
5.42069e-07
5.43157e-07
5.44244e-07
5.45328e-07
5.46411e-07
5.47493e-07
5.48571e-07
5.49649e-07
5.50726e-07
5.5304e-07
4.41257e-07
4.29016e-07
2.40345e-07
7.52112e-07
3.97538e-07
7.22879e-07
7.66315e-07
1.83947e-07
5.06033e-07
5.07524e-07
5.08663e-07
5.09801e-07
5.10938e-07
5.12071e-07
5.13204e-07
5.14335e-07
5.15463e-07
5.16591e-07
5.17717e-07
5.18841e-07
5.19964e-07
5.21085e-07
5.22203e-07
5.23321e-07
5.24438e-07
5.25551e-07
5.26665e-07
5.27776e-07
5.28885e-07
5.29993e-07
5.31099e-07
5.32203e-07
5.33306e-07
5.34408e-07
5.35507e-07
5.36605e-07
5.37702e-07
5.38795e-07
5.39889e-07
5.4098e-07
5.42069e-07
5.43157e-07
5.44244e-07
5.45328e-07
5.46411e-07
5.47493e-07
5.48571e-07
5.4965e-07
5.50726e-07
5.5304e-07
9.0305e-07
6.58003e-07
5.42261e-07
3.48483e-07
8.14059e-07
7.14224e-07
1.77766e-07
5.04668e-07
5.0638e-07
5.07524e-07
5.08663e-07
5.09801e-07
5.10938e-07
5.12071e-07
5.13204e-07
5.14335e-07
5.15463e-07
5.16591e-07
5.17717e-07
5.18841e-07
5.19964e-07
5.21085e-07
5.22203e-07
5.23321e-07
5.24438e-07
5.25551e-07
5.26665e-07
5.27776e-07
5.28885e-07
5.29993e-07
5.31099e-07
5.32203e-07
5.33306e-07
5.34408e-07
5.35507e-07
5.36605e-07
5.37702e-07
5.38795e-07
5.39889e-07
5.4098e-07
5.42069e-07
5.43157e-07
5.44244e-07
5.45328e-07
5.46411e-07
5.47493e-07
5.48571e-07
5.4965e-07
5.50726e-07
5.53041e-07
9.71842e-07
9.03484e-07
5.60696e-07
6.89094e-07
6.19418e-07
4.80584e-07
5.32611e-08
5.04885e-07
5.0638e-07
5.07523e-07
5.08663e-07
5.09801e-07
5.10938e-07
5.12071e-07
5.13204e-07
5.14335e-07
5.15463e-07
5.16591e-07
5.17717e-07
5.18841e-07
5.19964e-07
5.21085e-07
5.22203e-07
5.23321e-07
5.24438e-07
5.25551e-07
5.26665e-07
5.27776e-07
5.28885e-07
5.29993e-07
5.31099e-07
5.32203e-07
5.33306e-07
5.34408e-07
5.35507e-07
5.36605e-07
5.37702e-07
5.38795e-07
5.39889e-07
5.4098e-07
5.42069e-07
5.43157e-07
5.44244e-07
5.45328e-07
5.46411e-07
5.47492e-07
5.48571e-07
5.4965e-07
5.50726e-07
5.53041e-07
9.69833e-07
9.06809e-07
6.30194e-07
1.52897e-07
7.21416e-07
5.84765e-07
1.8322e-07
5.04887e-07
5.06381e-07
5.07524e-07
5.08663e-07
5.09802e-07
5.10938e-07
5.12071e-07
5.13204e-07
5.14335e-07
5.15463e-07
5.16591e-07
5.17717e-07
5.18841e-07
5.19964e-07
5.21085e-07
5.22204e-07
5.23321e-07
5.24438e-07
5.25551e-07
5.26665e-07
5.27776e-07
5.28885e-07
5.29993e-07
5.31099e-07
5.32203e-07
5.33306e-07
5.34408e-07
5.35507e-07
5.36605e-07
5.37702e-07
5.38795e-07
5.39889e-07
5.4098e-07
5.42069e-07
5.43157e-07
5.44244e-07
5.45328e-07
5.46411e-07
5.47493e-07
5.48571e-07
5.4965e-07
5.50726e-07
5.53041e-07
9.69149e-07
9.68366e-07
8.80656e-07
7.96767e-07
9.23633e-07
7.34935e-07
1.83346e-07
3.9242e-07
3.93663e-07
3.94697e-07
3.9573e-07
3.96763e-07
3.97795e-07
3.98826e-07
3.99857e-07
4.00886e-07
4.01916e-07
4.02944e-07
4.03971e-07
4.04999e-07
4.06025e-07
4.0705e-07
4.08075e-07
4.09099e-07
4.10122e-07
4.11145e-07
4.12167e-07
4.13187e-07
4.14208e-07
4.15227e-07
4.16246e-07
4.17264e-07
4.18281e-07
4.19298e-07
4.20314e-07
4.21328e-07
4.22342e-07
4.23356e-07
4.24368e-07
4.25379e-07
4.2639e-07
4.274e-07
4.28409e-07
4.29418e-07
4.30425e-07
4.31431e-07
4.32438e-07
4.33442e-07
4.34446e-07
4.36222e-07
9.57599e-07
9.49391e-07
9.01545e-07
9.57359e-07
9.22161e-07
7.66167e-07
1.83238e-07
3.92422e-07
3.93664e-07
3.94698e-07
3.95731e-07
3.96763e-07
3.97795e-07
3.98826e-07
3.99857e-07
4.00886e-07
4.01916e-07
4.02944e-07
4.03971e-07
4.04999e-07
4.06025e-07
4.0705e-07
4.08075e-07
4.09099e-07
4.10122e-07
4.11145e-07
4.12167e-07
4.13187e-07
4.14208e-07
4.15227e-07
4.16246e-07
4.17264e-07
4.18281e-07
4.19297e-07
4.20314e-07
4.21328e-07
4.22342e-07
4.23356e-07
4.24368e-07
4.25379e-07
4.2639e-07
4.274e-07
4.28409e-07
4.29418e-07
4.30425e-07
4.31431e-07
4.32438e-07
4.33442e-07
4.34446e-07
4.36222e-07
9.63573e-07
8.70883e-07
8.60527e-07
8.46977e-07
8.68246e-07
7.21453e-07
5.65668e-08
3.92289e-07
3.93665e-07
3.94698e-07
3.95731e-07
3.96763e-07
3.97795e-07
3.98826e-07
3.99857e-07
4.00886e-07
4.01916e-07
4.02944e-07
4.03971e-07
4.04999e-07
4.06025e-07
4.0705e-07
4.08075e-07
4.09099e-07
4.10122e-07
4.11145e-07
4.12167e-07
4.13188e-07
4.14208e-07
4.15227e-07
4.16246e-07
4.17264e-07
4.18281e-07
4.19298e-07
4.20314e-07
4.21328e-07
4.22342e-07
4.23356e-07
4.24368e-07
4.25379e-07
4.2639e-07
4.274e-07
4.28409e-07
4.29418e-07
4.30425e-07
4.31431e-07
4.32438e-07
4.33442e-07
4.34446e-07
4.36222e-07
8.74187e-07
8.99573e-07
4.87473e-07
8.52826e-07
6.69421e-07
6.83042e-07
3.99899e-07
1.84072e-07
3.93455e-07
3.94697e-07
3.95731e-07
3.96763e-07
3.97795e-07
3.98826e-07
3.99857e-07
4.00886e-07
4.01916e-07
4.02944e-07
4.03971e-07
4.04999e-07
4.06025e-07
4.0705e-07
4.08075e-07
4.09099e-07
4.10122e-07
4.11145e-07
4.12167e-07
4.13187e-07
4.14208e-07
4.15227e-07
4.16246e-07
4.17264e-07
4.18281e-07
4.19298e-07
4.20314e-07
4.21328e-07
4.22342e-07
4.23356e-07
4.24368e-07
4.25379e-07
4.2639e-07
4.274e-07
4.28409e-07
4.29418e-07
4.30425e-07
4.31431e-07
4.32438e-07
4.33442e-07
4.34446e-07
4.36222e-07
8.6829e-07
4.24018e-07
8.59712e-07
5.90021e-07
8.70535e-07
6.97383e-07
7.71734e-07
1.83952e-07
3.93453e-07
3.94696e-07
3.9573e-07
3.96763e-07
3.97794e-07
3.98826e-07
3.99856e-07
4.00886e-07
4.01916e-07
4.02944e-07
4.03971e-07
4.04999e-07
4.06025e-07
4.0705e-07
4.08075e-07
4.09099e-07
4.10122e-07
4.11145e-07
4.12167e-07
4.13187e-07
4.14208e-07
4.15227e-07
4.16246e-07
4.17264e-07
4.18281e-07
4.19298e-07
4.20314e-07
4.21328e-07
4.22342e-07
4.23356e-07
4.24368e-07
4.25379e-07
4.2639e-07
4.274e-07
4.28409e-07
4.29418e-07
4.30425e-07
4.31431e-07
4.32438e-07
4.33442e-07
4.34446e-07
4.36222e-07
5.19159e-07
8.56588e-07
7.32764e-07
8.60389e-07
1.981e-07
5.88661e-07
7.72318e-07
1.83951e-07
3.93452e-07
3.94696e-07
3.9573e-07
3.96762e-07
3.97794e-07
3.98826e-07
3.99856e-07
4.00886e-07
4.01916e-07
4.02944e-07
4.03971e-07
4.04999e-07
4.06025e-07
4.0705e-07
4.08075e-07
4.09099e-07
4.10122e-07
4.11145e-07
4.12167e-07
4.13187e-07
4.14208e-07
4.15227e-07
4.16246e-07
4.17264e-07
4.18281e-07
4.19298e-07
4.20314e-07
4.21328e-07
4.22342e-07
4.23356e-07
4.24368e-07
4.25379e-07
4.2639e-07
4.274e-07
4.28409e-07
4.29418e-07
4.30425e-07
4.31431e-07
4.32438e-07
4.33442e-07
4.34446e-07
4.36222e-07
7.48036e-07
6.97779e-07
6.00998e-07
8.44157e-07
9.1349e-07
7.06155e-07
7.66675e-07
1.83952e-07
3.93452e-07
3.94696e-07
3.9573e-07
3.96762e-07
3.97794e-07
3.98826e-07
3.99856e-07
4.00886e-07
4.01916e-07
4.02944e-07
4.03971e-07
4.04999e-07
4.06025e-07
4.0705e-07
4.08075e-07
4.09099e-07
4.10122e-07
4.11145e-07
4.12167e-07
4.13187e-07
4.14208e-07
4.15227e-07
4.16246e-07
4.17264e-07
4.18281e-07
4.19298e-07
4.20314e-07
4.21328e-07
4.22342e-07
4.23356e-07
4.24368e-07
4.25379e-07
4.2639e-07
4.274e-07
4.28409e-07
4.29418e-07
4.30425e-07
4.31431e-07
4.32438e-07
4.33442e-07
4.34446e-07
4.36222e-07
6.73565e-07
3.27191e-07
7.08531e-07
6.54458e-07
7.34847e-07
7.44446e-07
1.77798e-07
3.92284e-07
3.93661e-07
3.94695e-07
3.9573e-07
3.96762e-07
3.97794e-07
3.98826e-07
3.99856e-07
4.00886e-07
4.01916e-07
4.02944e-07
4.03971e-07
4.04999e-07
4.06025e-07
4.0705e-07
4.08075e-07
4.09099e-07
4.10122e-07
4.11145e-07
4.12167e-07
4.13188e-07
4.14208e-07
4.15227e-07
4.16246e-07
4.17264e-07
4.18281e-07
4.19298e-07
4.20314e-07
4.21328e-07
4.22342e-07
4.23356e-07
4.24368e-07
4.25379e-07
4.2639e-07
4.274e-07
4.28409e-07
4.29418e-07
4.30425e-07
4.31431e-07
4.32438e-07
4.33442e-07
4.34446e-07
4.36222e-07
9.30999e-07
9.08654e-07
4.00236e-07
6.70631e-07
7.5053e-07
6.77884e-07
5.32568e-08
3.92416e-07
3.93661e-07
3.94695e-07
3.9573e-07
3.96762e-07
3.97794e-07
3.98826e-07
3.99856e-07
4.00886e-07
4.01916e-07
4.02944e-07
4.03971e-07
4.04999e-07
4.06025e-07
4.0705e-07
4.08075e-07
4.09099e-07
4.10122e-07
4.11145e-07
4.12167e-07
4.13187e-07
4.14208e-07
4.15227e-07
4.16246e-07
4.17264e-07
4.18281e-07
4.19298e-07
4.20314e-07
4.21328e-07
4.22342e-07
4.23356e-07
4.24368e-07
4.25379e-07
4.2639e-07
4.274e-07
4.28409e-07
4.29418e-07
4.30425e-07
4.31431e-07
4.32438e-07
4.33442e-07
4.34446e-07
4.36222e-07
9.62779e-07
8.58029e-07
6.54011e-07
8.06117e-07
2.58127e-07
7.12328e-07
1.83225e-07
3.92416e-07
3.93661e-07
3.94695e-07
3.9573e-07
3.96762e-07
3.97794e-07
3.98826e-07
3.99856e-07
4.00886e-07
4.01916e-07
4.02944e-07
4.03971e-07
4.04999e-07
4.06025e-07
4.0705e-07
4.08075e-07
4.09099e-07
4.10122e-07
4.11145e-07
4.12167e-07
4.13188e-07
4.14208e-07
4.15227e-07
4.16246e-07
4.17264e-07
4.18281e-07
4.19298e-07
4.20314e-07
4.21328e-07
4.22342e-07
4.23356e-07
4.24368e-07
4.25379e-07
4.2639e-07
4.274e-07
4.28409e-07
4.29418e-07
4.30425e-07
4.31431e-07
4.32438e-07
4.33442e-07
4.34446e-07
4.36222e-07
3.51489e-08
5.87593e-07
3.51633e-08
7.17963e-07
5.17976e-08
7.44746e-07
5.18607e-08
3.52289e-08
6.85779e-07
6.91906e-08
6.74972e-07
5.19078e-08
7.12865e-07
1.00258e-07
1.39611e-07
6.90242e-07
6.97569e-07
7.01313e-07
1.94881e-07
7.57067e-07
7.73336e-07
6.99804e-07
6.2937e-07
7.01322e-07
7.04822e-07
7.72201e-07
6.4847e-07
7.71328e-07
6.99338e-07
6.71525e-07
7.00401e-07
7.27942e-07
7.7282e-07
7.60236e-07
7.76214e-07
6.9951e-07
6.74419e-07
7.00501e-07
5.57422e-07
7.75883e-07
7.42609e-07
7.7388e-07
7.00174e-07
6.84398e-07
6.98697e-07
7.44534e-07
7.71993e-07
7.08869e-07
7.71965e-07
6.96994e-07
4.09238e-07
1.48853e-07
7.3369e-07
7.70316e-07
4.48754e-07
2.04958e-07
9.66171e-08
6.76486e-07
3.61606e-08
4.7622e-07
1.37808e-07
6.96595e-07
5.36203e-08
3.54069e-08
6.93471e-07
3.51477e-08
6.8623e-07
5.23559e-08
7.51026e-07
5.17955e-08
5.17998e-08
7.62511e-07
5.18727e-08
7.41163e-07
5.18008e-08
7.62458e-07
5.18643e-08
5.19901e-08
7.25401e-07
1.00899e-07
7.35523e-07
5.19878e-08
7.31888e-07
9.97769e-08
1.94909e-07
7.59465e-07
7.73005e-07
7.04566e-07
1.95446e-07
7.44978e-07
7.72291e-07
7.71207e-07
6.0185e-07
7.67068e-07
6.78784e-07
7.70431e-07
6.01165e-07
7.6985e-07
7.72494e-07
7.61145e-07
7.75439e-07
6.92433e-07
7.71954e-07
7.47542e-07
7.77996e-07
7.75458e-07
7.4195e-07
7.73304e-07
5.74803e-07
7.75501e-07
7.49818e-07
7.7517e-07
7.66955e-07
7.08386e-07
7.71237e-07
6.64861e-07
7.69558e-07
6.78942e-07
7.72697e-07
7.7002e-07
3.04725e-07
2.01689e-07
7.49558e-07
7.70196e-07
5.63427e-07
2.07548e-07
1.37725e-07
6.97561e-07
5.38012e-08
6.35372e-07
1.37354e-07
7.19022e-07
5.38855e-08
5.23902e-08
7.43041e-07
5.17952e-08
5.19017e-07
5.26259e-08
7.51464e-07
5.17955e-08
5.18042e-08
7.32012e-07
5.18587e-08
5.85983e-07
3.51494e-08
6.87311e-07
3.51677e-08
5.19638e-08
7.35876e-07
9.95924e-08
6.90606e-07
3.51902e-08
6.84766e-07
6.88205e-08
1.95661e-07
7.54797e-07
7.72672e-07
6.63876e-07
1.40701e-07
6.91337e-07
6.97612e-07
7.7128e-07
6.07318e-07
7.69018e-07
6.78032e-07
6.98183e-07
6.6467e-07
7.00726e-07
7.72097e-07
7.4832e-07
7.75827e-07
6.85693e-07
7.00082e-07
6.93077e-07
6.99781e-07
7.75722e-07
7.37241e-07
7.75083e-07
5.9278e-07
6.99735e-07
6.824e-07
7.00961e-07
7.68634e-07
6.96668e-07
7.72922e-07
6.69584e-07
6.99979e-07
6.79031e-07
6.98411e-07
7.70633e-07
6.63407e-07
2.08707e-07
6.41351e-07
6.97057e-07
5.28411e-07
1.5361e-07
1.37269e-07
7.03277e-07
5.37728e-08
6.72916e-07
9.60474e-08
6.76509e-07
3.63106e-08
5.26056e-08
7.53033e-07
5.17959e-08
6.86936e-07
3.54184e-08
6.83351e-07
3.51476e-08
7.83614e-07
8.76122e-07
5.70115e-07
8.80567e-07
8.42905e-07
9.24416e-07
7.05543e-07
2.89545e-07
2.49002e-07
4.61156e-07
7.15753e-07
5.62063e-07
2.14484e-07
3.29809e-07
1.29658e-07
1.29269e-07
1.29658e-07
1.83339e-07
1.84016e-07
1.83348e-07
1.84017e-07
6.91818e-07
8.75245e-07
8.67162e-07
8.6537e-07
7.67886e-07
8.86862e-07
8.66456e-07
5.05676e-07
6.0146e-07
3.57803e-07
6.55306e-07
6.81184e-07
4.18101e-07
4.22255e-07
1.29658e-07
3.53634e-08
1.29567e-07
1.8324e-07
1.84017e-07
5.23134e-08
1.83835e-07
7.02681e-07
7.78927e-07
8.70111e-07
8.78527e-07
8.09994e-07
8.40598e-07
9.03306e-07
7.49047e-07
6.95051e-07
5.20883e-07
7.47116e-07
7.69626e-07
5.75495e-07
6.65966e-07
1.29567e-07
1.36415e-07
1.29519e-07
5.66294e-08
1.83835e-07
1.91711e-07
1.83741e-07
8.55313e-07
7.08298e-07
8.69459e-07
7.96075e-07
8.52717e-07
7.78201e-07
8.6889e-07
3.54768e-07
5.06898e-07
3.45185e-07
7.38357e-07
6.2616e-07
4.47027e-07
2.55556e-07
3.52934e-08
6.946e-07
3.52769e-08
3.98173e-07
5.20167e-08
7.66301e-07
5.19814e-08
7.3956e-07
8.71707e-07
8.55221e-07
9.1808e-07
8.37105e-07
9.22026e-07
8.6642e-07
7.63928e-07
6.98763e-07
6.55378e-07
7.59054e-07
7.72675e-07
6.91126e-07
6.94421e-07
3.5278e-08
6.98146e-07
3.52801e-08
7.72046e-07
5.19836e-08
7.73447e-07
5.19881e-08
8.19218e-07
7.85507e-07
8.56132e-07
8.8166e-07
8.12723e-07
8.06236e-07
9.04779e-07
7.64438e-07
6.45349e-07
3.65175e-07
5.89154e-07
7.27284e-07
5.14463e-07
6.95279e-07
3.52806e-08
6.96238e-07
3.52777e-08
7.73025e-07
5.19892e-08
7.70806e-07
5.19827e-08
8.81606e-07
6.61754e-07
8.68415e-07
3.95364e-07
8.78489e-07
5.28467e-07
8.95192e-07
7.70462e-07
6.97422e-07
6.87142e-07
7.62597e-07
7.70793e-07
7.52964e-07
6.97379e-07
3.52768e-08
2.7475e-07
3.52933e-08
7.64304e-07
5.19811e-08
3.58079e-07
5.20161e-08
8.25226e-07
6.88856e-07
3.70476e-07
8.116e-07
6.94735e-07
6.95147e-07
6.02884e-07
6.91844e-07
6.9677e-07
6.68419e-07
7.36162e-07
7.67185e-07
6.9519e-07
6.14015e-07
1.29517e-07
3.9115e-08
1.29566e-07
1.77644e-07
1.83733e-07
5.80782e-08
1.83831e-07
2.08938e-07
7.89335e-07
8.69208e-07
6.28482e-07
2.62185e-07
6.77352e-07
9.17881e-07
7.55201e-07
6.95657e-07
6.10187e-07
5.97322e-07
7.65366e-07
6.11481e-07
6.89024e-07
1.29566e-07
3.51714e-08
1.29566e-07
5.322e-08
1.83831e-07
5.18191e-08
1.83828e-07
6.85916e-07
8.64057e-07
8.64492e-07
8.99458e-07
8.4582e-07
8.91592e-07
9.07332e-07
6.83468e-07
6.87372e-07
6.815e-07
7.27222e-07
7.5629e-07
7.19397e-07
6.01435e-07
1.29657e-07
1.29267e-07
1.29657e-07
1.83226e-07
1.84013e-07
1.8334e-07
1.84013e-07
8.65388e-07
8.90195e-07
7.58389e-07
8.95974e-07
8.67476e-07
8.85826e-07
8.73982e-07
2.12783e-07
2.91934e-07
6.56099e-07
7.45313e-07
2.30809e-07
7.17169e-07
2.80467e-07
1.84011e-07
1.83343e-07
1.84012e-07
1.83337e-07
1.84011e-07
1.83343e-07
1.84012e-07
8.17163e-07
9.09541e-07
9.09839e-07
8.56486e-07
8.98922e-07
8.35887e-07
8.87337e-07
4.62174e-07
6.95676e-07
4.60793e-07
7.35893e-07
4.63984e-07
7.19476e-07
4.53275e-07
1.84013e-07
5.2294e-08
1.83831e-07
1.83233e-07
1.84013e-07
5.23555e-08
1.83831e-07
7.72674e-07
8.54582e-07
9.1502e-07
9.14373e-07
8.28872e-07
7.9175e-07
9.27285e-07
7.64118e-07
7.62093e-07
6.34198e-07
6.65514e-07
7.54948e-07
7.64362e-07
6.79358e-07
1.83831e-07
1.91731e-07
1.83737e-07
5.6628e-08
1.83831e-07
1.91618e-07
1.83737e-07
8.91418e-07
9.07478e-07
8.87226e-07
7.41893e-07
7.06347e-07
8.53678e-07
6.96246e-07
3.3326e-07
6.96095e-07
4.9137e-07
6.87534e-07
3.35991e-07
6.97974e-07
5.6338e-07
5.20161e-08
7.67833e-07
5.19811e-08
3.97968e-07
5.20162e-08
7.67723e-07
5.19812e-08
9.03566e-07
8.89319e-07
8.47602e-07
9.05997e-07
7.9104e-07
2.42378e-07
8.0002e-07
7.45662e-07
7.59025e-07
7.19533e-07
7.07035e-07
7.47232e-07
7.57071e-07
6.45613e-07
5.19832e-08
7.72794e-07
5.19878e-08
7.7147e-07
5.19833e-08
7.72358e-07
5.19877e-08
6.35855e-07
8.35856e-07
7.18758e-07
2.50526e-07
3.9233e-07
8.76883e-07
6.32449e-07
7.63131e-07
7.46466e-07
5.95611e-07
6.18295e-07
7.61319e-07
7.40305e-07
5.23011e-07
5.19887e-08
7.69619e-07
5.19823e-08
7.72076e-07
5.19888e-08
7.70435e-07
5.19823e-08
8.94868e-07
6.07456e-07
8.41389e-07
8.18096e-07
9.14129e-07
7.70447e-07
9.07443e-07
7.43899e-07
7.70099e-07
7.37631e-07
6.53442e-07
7.48293e-07
7.59005e-07
7.30185e-07
5.19807e-08
3.58131e-07
5.20155e-08
7.68448e-07
5.19808e-08
3.579e-07
5.20155e-08
6.9919e-07
5.72604e-07
4.05777e-07
8.28383e-07
7.22792e-07
5.83545e-07
7.36601e-07
6.72553e-07
7.73227e-07
4.05269e-07
7.12659e-07
7.00255e-07
7.69626e-07
5.16405e-07
1.83728e-07
5.83177e-08
1.83826e-07
1.77843e-07
1.83729e-07
5.80543e-08
1.83826e-07
2.63776e-07
4.84853e-07
7.901e-07
6.13109e-07
6.38652e-07
7.5212e-07
7.77823e-07
7.52668e-07
7.33099e-07
4.15737e-07
5.23311e-07
7.55233e-07
7.46295e-07
3.28032e-07
1.83826e-07
5.18194e-08
1.83823e-07
5.32875e-08
1.83826e-07
5.18199e-08
1.83823e-07
8.17711e-07
9.10103e-07
9.01826e-07
1.88135e-07
7.75533e-07
9.02193e-07
8.77596e-07
7.39402e-07
7.32341e-07
7.62089e-07
4.06246e-07
7.25844e-07
7.27135e-07
6.45177e-07
1.84007e-07
1.83334e-07
1.84007e-07
1.8322e-07
1.84007e-07
1.83334e-07
1.84007e-07
8.11594e-07
9.22009e-07
9.04607e-07
8.78635e-07
6.96464e-07
8.72535e-07
8.90995e-07
2.12082e-07
2.44757e-07
7.45266e-07
7.53264e-07
2.12834e-07
7.52611e-07
2.43376e-07
1.84016e-07
1.83347e-07
1.84017e-07
1.29269e-07
1.29658e-07
1.29269e-07
1.29658e-07
8.89596e-07
8.953e-07
9.18563e-07
8.89903e-07
8.84162e-07
8.75914e-07
8.72381e-07
5.48578e-07
7.55532e-07
4.27283e-07
7.68748e-07
5.16146e-07
7.62161e-07
4.30901e-07
1.84017e-07
5.23057e-08
1.83835e-07
1.29215e-07
1.29658e-07
3.53625e-08
1.29567e-07
8.33119e-07
8.43996e-07
8.44202e-07
8.50979e-07
8.64444e-07
5.56106e-07
6.63016e-07
7.69698e-07
7.70728e-07
7.60774e-07
7.31299e-07
7.69947e-07
7.68144e-07
7.33458e-07
1.83835e-07
1.91534e-07
1.83741e-07
3.82314e-08
1.29567e-07
1.36211e-07
1.2952e-07
4.2036e-07
6.67445e-07
3.32588e-07
6.01486e-07
2.67993e-07
6.88981e-07
4.80859e-07
6.22949e-07
7.15858e-07
6.23083e-07
6.88617e-07
4.63274e-07
7.31611e-07
6.47529e-07
5.20166e-08
7.68267e-07
5.19814e-08
3.15558e-07
3.52924e-08
6.95675e-07
3.5277e-08
8.63502e-07
1.83162e-07
3.62186e-07
8.66814e-07
7.31079e-07
1.43312e-07
3.491e-07
7.59066e-07
7.62939e-07
6.22053e-07
7.30721e-07
7.6348e-07
7.6553e-07
4.84251e-07
5.19836e-08
7.72665e-07
5.1988e-08
6.96999e-07
3.5278e-08
6.98112e-07
3.52802e-08
3.9373e-07
6.35793e-07
5.44383e-07
1.99421e-07
2.46933e-07
5.47088e-07
6.5195e-07
7.67964e-07
7.65363e-07
5.65694e-07
6.56011e-07
7.53535e-07
7.74328e-07
5.8968e-07
5.19891e-08
7.70794e-07
5.19826e-08
6.98382e-07
3.52806e-08
6.96289e-07
3.52777e-08
8.87129e-07
7.62468e-07
8.25075e-07
8.83473e-07
8.79947e-07
4.10227e-07
5.60921e-07
7.50253e-07
7.5392e-07
6.86292e-07
7.01304e-07
7.49811e-07
7.49652e-07
5.59065e-07
5.19812e-08
3.57721e-07
5.20161e-08
6.95451e-07
3.52769e-08
2.74089e-07
3.52933e-08
8.03029e-07
8.08191e-07
8.18625e-07
6.87666e-07
4.06838e-07
8.68373e-07
8.46378e-07
6.54871e-07
7.66358e-07
5.23981e-07
7.44749e-07
6.25688e-07
7.65302e-07
4.98843e-07
1.83733e-07
5.79455e-08
1.83831e-07
1.25936e-07
1.29517e-07
3.90012e-08
1.29566e-07
7.99821e-07
5.62892e-07
8.48121e-07
6.55225e-07
7.21934e-07
5.98042e-07
8.73564e-07
7.48924e-07
7.40115e-07
3.86029e-07
7.03531e-07
7.39312e-07
7.41858e-07
5.92203e-07
1.83831e-07
5.18199e-08
1.83828e-07
3.60345e-08
1.29566e-07
3.51622e-08
1.29566e-07
8.0972e-07
9.10571e-07
8.44435e-07
7.48698e-07
8.2273e-07
8.94338e-07
7.14986e-07
7.55235e-07
7.33113e-07
6.81651e-07
7.16848e-07
7.56163e-07
7.38309e-07
7.31741e-07
1.84012e-07
1.8334e-07
1.84012e-07
1.2921e-07
1.29657e-07
1.29267e-07
1.29657e-07
5.93448e-08
4.16477e-08
3.51479e-08
5.18057e-08
5.18026e-08
4.03821e-08
6.11807e-08
5.2348e-07
5.65781e-07
6.87015e-07
6.93026e-07
6.66914e-07
7.53117e-07
4.16703e-07
7.20476e-08
3.51546e-08
5.99391e-08
5.18375e-08
5.18176e-08
8.73113e-08
4.94113e-08
2.84543e-07
7.09962e-07
3.18093e-07
5.72479e-07
5.50856e-07
2.63486e-07
3.32219e-07
5.95135e-08
5.18029e-08
6.14573e-08
5.17969e-08
5.1801e-08
6.05412e-08
6.10143e-08
5.45593e-07
7.11278e-07
6.72801e-07
7.57634e-07
6.44141e-07
7.52745e-07
5.7968e-07
7.15079e-08
5.18478e-08
5.18079e-08
8.72292e-08
5.18155e-08
8.73177e-08
7.07596e-08
1.1594e-07
6.5314e-08
3.63807e-08
5.19365e-08
9.51086e-08
5.36604e-08
8.02646e-08
6.28524e-07
5.64917e-07
6.79459e-07
7.47406e-07
6.7382e-07
7.58955e-07
5.31998e-07
2.2362e-07
4.23978e-08
6.63281e-07
1.00533e-07
6.23614e-08
7.32301e-07
1.61556e-07
4.91489e-07
6.68738e-07
6.66895e-07
4.21483e-07
6.63362e-07
4.01137e-07
4.7841e-07
1.1665e-07
5.18986e-08
9.59697e-08
5.35536e-08
9.59049e-08
5.3638e-08
1.17566e-07
6.36326e-07
6.76538e-07
6.9947e-07
7.5615e-07
6.81289e-07
7.58036e-07
6.46477e-07
2.21119e-07
1.00388e-07
6.30032e-08
7.37135e-07
6.26699e-08
7.34178e-07
2.17543e-07
7.72374e-07
6.95901e-07
6.58124e-07
1.95095e-07
7.67497e-07
7.27161e-07
6.98922e-07
7.72768e-07
3.74874e-07