/*--------------------------------*- C++ -*----------------------------------*\
| =========                 |                                                 |
| \\      /  F ield         | OpenFOAM: The Open Source CFD Toolbox           |
|  \\    /   O peration     | Version:  5.0                                   |
|   \\  /    A nd           | Web:      www.OpenFOAM.org                      |
|    \\/     M anipulation  |                                                 |
\*---------------------------------------------------------------------------*/
FoamFile
{
    version     2.0;
    format      ascii;
    class       volVectorField;
    location    "1.7";
    object      U;
}
// * * * * * * * * * * * * * * * * * * * * * * * * * * * * * * * * * * * * * //

dimensions      [0 1 -1 0 0 0 0];

internalField   nonuniform List<vector> 
8409
(
(-0.00769365 -0.00938641 0.000128458)
(0.00647234 -0.00607723 -0.000381812)
(-0.00487112 -0.00367682 -0.000529844)
(-0.012154 0.0026627 -0.0013142)
(-0.00612598 -0.00762419 0.000394297)
(0.00108544 0.00245699 -5.89733e-05)
(0.00040312 0.00013093 5.22211e-06)
(0.000760892 7.95145e-05 -1.46946e-06)
(0.000767153 4.84289e-05 -2.8407e-08)
(0.000790749 3.01657e-05 1.65636e-07)
(0.000799344 1.88755e-05 1.13495e-07)
(0.000804482 1.16298e-05 6.92642e-08)
(0.000807444 7.27261e-06 4.75373e-09)
(0.00080806 4.94139e-06 7.9403e-08)
(0.0008073 3.09749e-06 5.17366e-08)
(0.000806784 1.91644e-06 2.07539e-07)
(0.000806052 1.2307e-06 5.6016e-08)
(0.000804608 9.38589e-07 7.04149e-08)
(0.000803007 5.78194e-07 4.42344e-08)
(0.000801723 2.71192e-07 1.79424e-07)
(0.000800337 1.17849e-07 5.56426e-08)
(0.000798827 1.12062e-07 4.46112e-09)
(0.000797243 3.22384e-08 -9.32225e-09)
(0.000795774 1.97613e-08 4.46304e-08)
(0.000794398 2.12393e-08 6.30312e-08)
(0.00079273 6.28497e-08 5.57852e-08)
(0.000791028 1.75329e-08 4.07456e-08)
(0.000789675 4.13745e-08 5.0457e-08)
(0.000788122 1.75764e-07 3.29504e-08)
(0.000786612 -1.88029e-07 1.60553e-07)
(0.00078504 -4.92016e-07 7.72741e-08)
(0.000783415 -5.73353e-07 -6.11031e-08)
(0.000782032 -4.33369e-07 8.0394e-08)
(0.00078081 -1.17564e-07 2.10574e-08)
(0.000779417 5.81489e-08 3.8331e-08)
(0.000777784 1.19928e-08 5.0021e-08)
(0.000776193 -6.50916e-08 4.03663e-08)
(0.000774346 1.84572e-07 3.84652e-08)
(0.000773563 6.36274e-07 9.63079e-08)
(0.000772631 2.20919e-07 8.66752e-08)
(0.000770751 7.29086e-08 2.92387e-08)
(0.00076923 6.93096e-09 7.36176e-08)
(0.000768353 -5.99864e-07 8.72441e-08)
(0.000766698 -5.36029e-07 4.31788e-10)
(0.00076475 -2.07017e-07 3.48524e-08)
(0.000763465 -1.20766e-07 4.60405e-08)
(0.0007623 9.58093e-09 6.17747e-08)
(0.000761161 -1.18253e-07 4.15402e-08)
(0.000759447 -3.28353e-07 4.5386e-08)
(0.000757839 -3.70912e-07 3.46502e-09)
(0.0023971 -0.0107906 -0.000201391)
(-0.00594756 -0.00317774 0.00160196)
(-0.00808796 0.0113618 0.00159947)
(-0.000212844 -0.0197798 0.000406697)
(0.0199533 -0.00693393 -0.00063383)
(-0.00261404 -0.00232649 4.11476e-05)
(0.000432147 4.21963e-06 7.10795e-07)
(0.00075244 9.7812e-06 -1.92447e-06)
(0.000756722 1.27949e-05 -8.74481e-08)
(0.000781187 7.8594e-06 8.57433e-08)
(0.000792831 5.47499e-06 5.77466e-08)
(0.000800069 3.62517e-06 6.09385e-08)
(0.000804079 2.33188e-06 5.83318e-08)
(0.000805931 1.18624e-06 5.1592e-08)
(0.000806474 8.03542e-07 5.15046e-08)
(0.000806123 6.11225e-07 8.50466e-08)
(0.000805236 3.99474e-07 3.13518e-08)
(0.000804279 1.84161e-07 5.51319e-08)
(0.00080303 3.47474e-07 4.16061e-08)
(0.000801544 1.84788e-07 2.75629e-08)
(0.000800144 1.50161e-07 8.9109e-08)
(0.000798701 5.58085e-08 6.20929e-08)
(0.000797185 9.61109e-08 2.90174e-08)
(0.000795719 6.03717e-08 6.83532e-08)
(0.000794235 -1.16393e-07 5.7778e-08)
(0.000792718 -2.84356e-07 4.65016e-08)
(0.000791207 -2.49513e-07 3.44231e-08)
(0.000789745 -2.52012e-07 4.54356e-08)
(0.000787949 -5.09338e-07 6.36219e-08)
(0.000786155 -3.6981e-07 6.5048e-08)
(0.000784902 -2.96307e-07 -1.18804e-07)
(0.000783538 -1.31926e-07 1.52188e-08)
(0.000782377 3.34695e-07 1.25853e-07)
(0.000781271 3.58302e-07 1.30644e-07)
(0.000779503 6.0478e-08 4.1913e-08)
(0.000777837 1.57026e-07 3.34545e-08)
(0.000776621 2.16789e-07 4.57928e-08)
(0.000775527 4.00289e-07 9.13504e-09)
(0.00077349 7.73536e-07 5.85068e-09)
(0.000771558 3.39912e-07 4.15444e-07)
(0.000770378 9.37799e-08 4.3682e-08)
(0.000768743 -2.72684e-08 4.93648e-08)
(0.000767377 -1.89052e-07 7.60823e-08)
(0.000766812 -7.35588e-07 1.00536e-07)
(0.000765543 -2.53673e-07 5.70264e-08)
(0.000763785 -4.89889e-08 5.16053e-08)
(0.000762299 2.42366e-07 1.12737e-08)
(0.000760764 2.99351e-08 4.86204e-08)
(0.000759375 -1.46328e-07 -6.61e-08)
(0.000758329 -2.06324e-07 1.10185e-07)
(-0.00456354 -0.0125795 -0.000172144)
(0.00750948 0.0102983 -8.53712e-05)
(-0.0125347 0.00911818 -0.00267665)
(-0.0107902 -0.00365201 -0.000455487)
(0.00823819 0.0201843 -0.000393587)
(-0.00133925 0.00184959 -0.000181625)
(0.000403171 -0.000164107 3.77063e-05)
(0.00074521 -5.993e-05 -2.12448e-06)
(0.000764855 -9.77609e-06 8.41739e-09)
(0.000781579 -1.4156e-05 6.00423e-08)
(0.000794039 -8.00124e-06 7.37835e-08)
(0.000800543 -5.42714e-06 5.94787e-08)
(0.00080439 -3.46206e-06 5.76196e-08)
(0.000806147 -2.25001e-06 5.79362e-08)
(0.00080658 -1.41729e-06 5.621e-08)
(0.000806278 -9.53485e-07 5.72676e-08)
(0.000805518 -5.94528e-07 5.49519e-08)
(0.000804543 -3.57794e-07 5.91819e-08)
(0.000803008 -5.18517e-07 1.05306e-07)
(0.000801475 -2.68442e-07 4.16247e-08)
(0.000800175 -1.22498e-07 3.96724e-08)
(0.000798758 -2.55838e-08 4.94181e-08)
(0.000797247 -1.59272e-09 4.97217e-08)
(0.000795508 5.74535e-08 6.61838e-08)
(0.000793968 6.12958e-08 4.63038e-08)
(0.000792565 2.35589e-08 3.45853e-08)
(0.000791071 -4.95003e-08 6.14346e-08)
(0.000789354 -6.56696e-08 5.83871e-08)
(0.000787979 -1.13358e-07 3.12409e-09)
(0.000786883 3.62132e-07 3.18022e-08)
(0.000785341 4.50574e-07 2.13707e-07)
(0.000784204 4.79113e-07 6.74973e-08)
(0.000782643 4.61116e-07 -5.11623e-09)
(0.000780464 2.61302e-07 1.15946e-08)
(0.000779163 1.66505e-08 1.02413e-07)
(0.000777977 1.08847e-07 5.2902e-08)
(0.000776495 7.2333e-08 4.86643e-08)
(0.000775039 -3.806e-08 5.57882e-08)
(0.000773483 -2.85994e-07 2.25654e-08)
(0.000771778 -8.30822e-08 7.07669e-08)
(0.000770291 3.28345e-08 7.00389e-08)
(0.000768877 1.78891e-07 5.41034e-08)
(0.00076747 5.37768e-07 7.27782e-08)
(0.000766621 6.47856e-07 1.42447e-07)
(0.000765613 1.97522e-07 6.28417e-08)
(0.000764086 1.78687e-07 9.15496e-08)
(0.000762399 1.51382e-07 6.74351e-08)
(0.000760676 4.08196e-07 8.1024e-08)
(0.000759157 1.89482e-07 -2.42246e-08)
(0.000758277 1.45488e-07 1.26255e-07)
(-0.0195935 -0.00583219 0.000962749)
(0.00443922 0.000599851 -8.74682e-05)
(0.00706241 -0.0080291 -0.00107985)
(0.017255 -0.00101971 0.000180127)
(-0.000461827 0.00038199 0.000570645)
(0.00479491 -0.00224458 -0.000195859)
(0.00153893 0.000373289 -1.79384e-05)
(0.00041285 -4.55495e-05 -1.3807e-06)
(0.000827698 -4.47159e-05 -1.18385e-06)
(0.00078359 -3.45169e-05 -2.985e-07)
(0.00080385 -2.04672e-05 1.71441e-07)
(0.00080581 -1.29304e-05 4.64729e-08)
(0.000808095 -8.32977e-06 6.67196e-08)
(0.000808516 -5.12278e-06 5.6406e-08)
(0.000808113 -3.01274e-06 5.16778e-08)
(0.000807163 -1.8311e-06 5.09038e-08)
(0.000805989 -1.26077e-06 4.86589e-08)
(0.00080438 -8.43202e-07 3.1105e-08)
(0.000803146 -7.02767e-07 3.52028e-08)
(0.000802043 -6.52774e-07 3.31732e-08)
(0.00080045 -3.52423e-07 6.42849e-08)
(0.000798853 -2.32694e-07 5.09528e-08)
(0.000797288 -2.62717e-07 1.31673e-08)
(0.000795797 -1.34645e-07 6.72807e-08)
(0.000794192 3.71346e-08 2.74791e-08)
(0.000792579 1.61063e-07 3.02547e-08)
(0.000791095 2.72265e-07 6.10321e-08)
(0.000789665 4.30948e-07 5.17077e-08)
(0.000788482 7.26492e-07 3.91289e-08)
(0.000786857 5.53116e-07 3.30273e-08)
(0.000785043 3.40102e-07 6.45236e-08)
(0.000783546 4.74954e-07 -1.5371e-08)
(0.0007821 -2.21609e-08 4.32945e-08)
(0.000780714 -1.65316e-08 4.83078e-08)
(0.000779312 1.79267e-07 4.68945e-08)
(0.000777906 5.3197e-08 4.06697e-08)
(0.000776437 -2.2969e-08 3.74452e-08)
(0.000775079 -1.17602e-07 4.28339e-08)
(0.000773434 -2.62494e-07 1.82146e-08)
(0.000771957 -2.1949e-07 3.64533e-08)
(0.000770705 -4.27149e-09 5.92351e-08)
(0.000769371 1.12577e-07 3.23615e-08)
(0.000767959 3.27936e-07 8.58619e-08)
(0.000766382 6.28042e-07 -1.03407e-07)
(0.000764952 2.55758e-07 -7.05286e-08)
(0.000763724 1.3795e-07 4.41546e-08)
(0.000762583 1.29443e-07 3.8267e-08)
(0.000760809 3.55247e-07 2.54093e-08)
(0.000759042 2.33511e-07 4.72693e-08)
(0.00075791 2.8685e-07 1.46755e-07)
(-0.0104265 -0.00823012 0.000394828)
(-6.87641e-05 0.00162929 2.59822e-05)
(-0.0098346 0.0053821 -0.0034248)
(-0.00243185 -0.00206301 0.000606857)
(0.0046302 -0.0142333 -0.000463501)
(-0.00687906 -0.00811803 -0.000330533)
(0.000878919 -0.000405637 0.00011418)
(0.000435358 -8.54396e-05 -1.60385e-06)
(0.000880839 -6.84125e-05 -1.41317e-06)
(0.000812454 -4.19159e-05 -4.51932e-07)
(0.000821235 -2.5474e-05 1.5737e-07)
(0.000815846 -1.58703e-05 8.52605e-08)
(0.000814232 -9.58261e-06 3.21407e-07)
(0.000812845 -6.15405e-06 5.77015e-08)
(0.000810726 -4.14306e-06 4.06114e-08)
(0.000808487 -2.70298e-06 -9.6888e-09)
(0.000806765 -1.63315e-06 5.13904e-08)
(0.000805249 -1.00643e-06 4.88566e-08)
(0.000803251 -3.77749e-07 7.527e-08)
(0.000801918 -2.82914e-08 1.20302e-07)
(0.000800704 -2.26617e-07 6.76486e-08)
(0.000798874 -7.5455e-08 2.04758e-08)
(0.000797372 -6.18614e-08 2.9289e-07)
(0.000795884 -1.2263e-08 1.01146e-07)
(0.000794337 -1.99777e-08 6.62325e-08)
(0.000792857 -1.05432e-07 6.67506e-08)
(0.000791405 1.49848e-07 6.75687e-08)
(0.000789916 2.6618e-07 3.1615e-08)
(0.000788124 3.94593e-07 2.25778e-07)
(0.000786393 2.47403e-07 9.19818e-08)
(0.000785236 1.11493e-07 8.27217e-08)
(0.000783747 -1.32304e-07 2.03437e-08)
(0.000782026 1.40971e-07 3.53324e-08)
(0.000780714 7.59327e-08 4.87643e-08)
(0.000779249 8.82235e-08 5.0727e-08)
(0.000777724 -3.20515e-08 4.62422e-08)
(0.000776282 -6.0536e-08 2.89416e-08)
(0.000774741 -1.23694e-07 5.09514e-08)
(0.000773358 -1.69661e-07 4.24211e-08)
(0.000772102 -9.28113e-08 -1.06347e-07)
(0.000770706 4.10994e-08 6.09684e-08)
(0.00076929 1.06145e-07 3.95472e-07)
(0.000768111 4.95734e-08 7.64706e-09)
(0.000766527 1.13912e-08 6.44878e-08)
(0.000764997 -4.95434e-08 4.08109e-08)
(0.000763927 -1.71134e-07 4.67969e-08)
(0.00076267 -4.02548e-07 -3.15642e-08)
(0.000760805 -9.2802e-07 4.07523e-08)
(0.000759065 -2.81956e-07 5.99679e-08)
(0.000757629 1.01579e-08 5.29801e-08)
(0.0199216 0.00890631 -0.000117461)
(-0.00137557 0.0119864 -0.00371312)
(2.40262e-05 -0.00585467 0.000667356)
(0.0158356 -0.000760967 0.000731841)
(-0.00440194 -0.00393252 0.00012914)
(-0.00150335 -0.00297771 -6.33372e-05)
(0.00113941 -0.000836953 0.000100318)
(0.000486472 -5.41846e-05 -1.97201e-06)
(0.000921283 -4.23189e-05 -1.77093e-06)
(0.000837719 -2.76281e-05 -4.18504e-07)
(0.000836646 -1.78908e-05 1.43425e-07)
(0.00082582 -1.15034e-05 3.04181e-08)
(0.00082033 -7.00779e-06 7.40569e-08)
(0.000815371 -4.60926e-06 4.83235e-08)
(0.000812463 -3.19281e-06 1.14751e-07)
(0.000810324 -2.12487e-06 8.95791e-08)
(0.000808124 -1.28075e-06 5.27317e-08)
(0.000805957 -7.74086e-07 6.90308e-08)
(0.000804373 -4.93731e-07 2.17307e-08)
(0.000802234 1.22741e-07 1.93132e-08)
(0.000800392 1.40254e-07 9.97553e-08)
(0.00079906 9.45444e-08 5.49078e-08)
(0.000797368 1.72849e-07 9.08457e-08)
(0.000795849 1.22764e-07 7.01236e-08)
(0.000794076 1.39267e-07 3.50348e-08)
(0.000792792 2.04422e-07 1.1192e-08)
(0.000791558 -2.83884e-08 3.97889e-08)
(0.000789969 -1.7907e-07 1.04017e-08)
(0.000788456 -6.81684e-08 2.31066e-08)
(0.0007865 -3.31474e-07 -1.10557e-07)
(0.000784568 -1.90805e-07 2.68835e-08)
(0.000783581 -2.00332e-07 1.8857e-07)
(0.00078236 -1.78826e-07 1.10789e-08)
(0.000780646 -9.15979e-08 4.70553e-08)
(0.000779176 -1.61402e-07 -2.23958e-08)
(0.00077772 -2.55187e-08 5.04951e-08)
(0.000776323 -1.87777e-08 1.1606e-08)
(0.000774944 7.83839e-08 9.26916e-08)
(0.000773475 1.70111e-07 6.24835e-08)
(0.000772221 1.84934e-07 5.80553e-08)
(0.000770953 2.0396e-07 6.37463e-08)
(0.000769381 4.22911e-07 2.63018e-07)
(0.00076784 3.03346e-07 1.95119e-09)
(0.000766259 5.11704e-08 5.11489e-08)
(0.000764726 -2.65471e-08 4.02638e-08)
(0.000763286 -2.04367e-07 4.61398e-08)
(0.000761641 -5.83029e-07 -6.83355e-08)
(0.000760965 -7.95334e-07 6.11766e-08)
(0.000760217 -5.59171e-07 1.12334e-07)
(0.00075825 -3.4486e-07 1.2321e-07)
(-0.00677841 0.0126741 -0.000217565)
(-0.0148543 0.00209383 0.000425198)
(-0.0012446 0.000671704 0.00222919)
(0.0122736 -0.00457387 0.000203182)
(0.00138816 -0.00132927 0.000434358)
(0.00352921 -1.98689e-05 0.000163576)
(0.00126111 -0.00018247 0.000170439)
(0.0005114 -9.45219e-07 8.70815e-08)
(0.000922952 -2.01082e-05 -1.57111e-06)
(0.000843229 -6.55335e-06 -3.74992e-07)
(0.000841529 -5.57899e-06 1.70477e-07)
(0.000829538 -3.22772e-06 4.39293e-08)
(0.000822905 -2.33995e-06 5.57757e-08)
(0.000817648 -1.37187e-06 5.2722e-08)
(0.000813854 -6.69606e-07 5.47028e-08)
(0.000810893 -3.89682e-07 5.49686e-08)
(0.000808463 -3.66372e-07 5.35123e-08)
(0.000806238 -2.44634e-07 3.87766e-08)
(0.000804375 5.05885e-09 4.83494e-08)
(0.000802711 -2.45529e-07 5.55442e-08)
(0.000800668 1.02364e-07 -2.19129e-08)
(0.000798913 2.04677e-08 5.07568e-08)
(0.000797406 1.30573e-07 1.93747e-08)
(0.000795841 5.54095e-08 5.26945e-08)
(0.000794438 1.18811e-07 1.26747e-07)
(0.000792647 1.94239e-07 9.84316e-08)
(0.000790926 -9.10578e-08 4.98147e-08)
(0.000789868 -2.98623e-07 4.31216e-08)
(0.000787937 -8.0699e-07 -5.35461e-08)
(0.000786243 -8.09933e-07 2.68683e-08)
(0.000785403 -4.99817e-07 2.50326e-08)
(0.000783765 -3.00488e-08 1.83889e-07)
(0.000782164 -1.90841e-08 3.95593e-08)
(0.000780738 -7.13945e-08 7.01612e-08)
(0.000779333 -5.66492e-08 1.03393e-07)
(0.000777903 9.25651e-09 5.37189e-08)
(0.000776411 4.61284e-09 4.04336e-08)
(0.000774976 1.75923e-08 5.25902e-08)
(0.000773489 7.2111e-08 5.02576e-08)
(0.000772143 2.36313e-07 -5.56957e-08)
(0.000771002 4.45614e-09 4.49175e-08)
(0.000769413 -2.51953e-07 -2.25652e-08)
(0.000767645 -1.69456e-07 6.19193e-08)
(0.000766114 -2.52922e-07 5.05582e-08)
(0.000764679 -9.53969e-08 1.45326e-08)
(0.000763234 -1.39899e-08 4.97025e-08)
(0.000761936 -5.02132e-08 1.20269e-08)
(0.00076084 2.03761e-07 5.08147e-08)
(0.000759638 -2.44274e-07 4.00493e-08)
(0.000758757 -3.07488e-07 5.4883e-08)
(0.0035558 -0.0100713 0.000581457)
(-0.0055633 -0.0492991 0.00211778)
(-0.0178291 0.00955714 -0.00127934)
(0.00329613 -0.0211909 -0.00212425)
(0.00636164 0.0133699 -3.32883e-05)
(0.000905749 -0.00372656 -0.000622891)
(0.000854512 0.000122831 -8.86723e-06)
(0.000929249 7.12366e-05 -2.27937e-06)
(0.000881887 1.00623e-05 -1.51159e-07)
(0.0008559 1.43164e-05 2.72012e-08)
(0.000840801 8.27795e-06 4.01985e-08)
(0.000829872 5.62999e-06 3.87822e-08)
(0.000822652 3.54181e-06 4.82572e-08)
(0.00081746 2.23743e-06 4.74223e-08)
(0.000813691 1.4381e-06 5.01741e-08)
(0.000810702 8.82652e-07 5.17266e-08)
(0.000808305 6.49826e-07 1.29413e-07)
(0.000806422 4.0189e-07 6.999e-08)
(0.000804372 2.65995e-07 9.28696e-08)
(0.000802355 6.6509e-08 3.58535e-08)
(0.000800724 -7.85903e-08 4.70428e-08)
(0.000799094 2.05886e-08 6.06656e-08)
(0.000797411 -8.70164e-08 3.30406e-08)
(0.000795834 -4.32851e-08 4.68035e-08)
(0.000794249 -2.12256e-07 6.45634e-08)
(0.000792529 -2.90923e-07 5.73085e-08)
(0.000790943 -1.40307e-07 7.50081e-09)
(0.000789077 -8.98956e-08 4.77954e-08)
(0.000787823 -2.92764e-07 1.25031e-07)
(0.000786891 2.4173e-07 6.8018e-08)
(0.000785547 2.77906e-07 9.33463e-08)
(0.000784185 1.28651e-08 1.78412e-07)
(0.00078231 -7.39373e-09 4.32252e-08)
(0.0007806 1.08293e-07 5.19972e-08)
(0.000779278 3.18641e-08 4.05698e-08)
(0.000777797 -9.33397e-08 7.0849e-08)
(0.000776334 -1.40183e-07 5.71842e-08)
(0.000775028 -1.30022e-07 2.89973e-08)
(0.000773747 -7.56162e-09 4.34258e-08)
(0.000772136 -1.25925e-08 5.38512e-08)
(0.000770343 -8.29398e-08 1.88828e-08)
(0.000769165 -1.60411e-07 5.82776e-08)
(0.000767841 -1.0048e-07 5.43913e-08)
(0.000766353 -1.12769e-07 4.45731e-08)
(0.000765025 -4.83234e-08 6.82635e-08)
(0.000763343 7.76219e-08 4.64e-08)
(0.000761915 4.68247e-07 4.17904e-08)
(0.000760723 3.34054e-07 5.26386e-08)
(0.000759586 2.21759e-07 9.17509e-08)
(0.000758939 -8.28216e-08 -4.51507e-08)
(0.0022279 0.00266989 -0.00030924)
(-0.00715726 -0.00708492 -2.84823e-05)
(-0.00111054 -0.00485464 0.000841425)
(0.00212932 0.00481689 0.000798515)
(0.00143933 0.0192196 -0.00108432)
(0.0370026 0.005987 0.00153332)
(0.000260319 3.65612e-06 2.10244e-05)
(0.00089982 8.20667e-05 -3.29521e-06)
(0.000856472 4.99611e-05 -1.07939e-08)
(0.000840888 3.24587e-05 3.93517e-09)
(0.00083054 2.01789e-05 3.56496e-08)
(0.000823539 1.28954e-05 3.96676e-08)
(0.000818615 8.11203e-06 4.6458e-08)
(0.000814988 4.83456e-06 5.25962e-08)
(0.000812142 3.13248e-06 5.46124e-08)
(0.000809895 2.12971e-06 1.19139e-07)
(0.000807854 1.36335e-06 8.4673e-08)
(0.000805753 6.70269e-07 5.97772e-08)
(0.000803952 3.13012e-07 2.59368e-08)
(0.000802278 2.71071e-07 8.62689e-08)
(0.00080061 1.28902e-07 5.19992e-08)
(0.000798903 -3.14914e-08 6.50771e-08)
(0.000797327 -9.93575e-08 -1.40899e-08)
(0.000795686 -1.20361e-07 5.42169e-08)
(0.000794131 -1.81368e-07 3.35842e-08)
(0.000792739 -1.75215e-07 6.09096e-08)
(0.000791179 -2.68227e-08 1.37147e-08)
(0.000789679 5.6738e-08 4.69313e-08)
(0.000788351 3.49991e-07 1.00022e-07)
(0.000786955 3.88427e-07 -2.5781e-08)
(0.000785116 4.29766e-07 8.11594e-09)
(0.000783407 2.56594e-07 1.15819e-07)
(0.000782283 -1.49633e-07 -2.96355e-07)
(0.000780787 -1.48276e-07 6.29311e-08)
(0.000779081 -1.06374e-07 2.46573e-08)
(0.000777689 -9.80451e-08 5.6518e-08)
(0.000776367 4.86818e-08 8.52986e-08)
(0.000775143 -4.04104e-08 4.50389e-08)
(0.000773637 -2.5273e-07 7.36592e-08)
(0.000772049 -2.81338e-07 4.00733e-08)
(0.000770818 -1.51299e-07 5.80261e-08)
(0.000769392 -4.00139e-08 1.9109e-08)
(0.000767706 1.81979e-07 3.10897e-08)
(0.00076618 1.29704e-07 3.84663e-08)
(0.000764917 1.54436e-07 6.56194e-08)
(0.000763878 1.27203e-07 -5.35673e-09)
(0.000762254 2.91798e-07 1.92935e-08)
(0.000760529 4.34316e-07 4.53574e-08)
(0.000759117 6.65101e-07 -5.25626e-08)
(0.00075858 5.22754e-07 9.27668e-08)
(-0.0012042 -0.00553548 0.000460518)
(-0.0149887 0.00120499 0.000451768)
(0.00837486 2.58956e-06 0.000390158)
(0.00141347 -0.0060324 -0.0018185)
(0.00976644 -0.00174342 0.000254253)
(0.00761562 0.00286402 -0.000847234)
(0.00046843 0.000147866 -1.15854e-06)
(0.000833204 0.000111085 -2.66844e-06)
(0.000818892 6.44523e-05 -2.04136e-07)
(0.000818355 3.99669e-05 1.00691e-07)
(0.000816142 2.46052e-05 5.89372e-08)
(0.00081466 1.51787e-05 6.96283e-08)
(0.000812495 9.4639e-06 5.01448e-08)
(0.000811185 6.30838e-06 6.81398e-08)
(0.000810279 3.96391e-06 5.31614e-08)
(0.000808471 2.4621e-06 5.47197e-08)
(0.000806468 1.49222e-06 4.9561e-08)
(0.000805101 1.03124e-06 1.02613e-07)
(0.000803868 5.83029e-07 4.58988e-08)
(0.000802121 2.78736e-07 5.13649e-08)
(0.000800344 1.40598e-07 1.71687e-08)
(0.000798809 6.17529e-08 7.37628e-08)
(0.000797301 8.0773e-08 5.5445e-08)
(0.000795733 -5.20587e-09 4.83458e-08)
(0.000794182 1.52248e-07 5.60322e-08)
(0.000792724 2.09795e-07 5.89184e-08)
(0.000791234 1.45944e-07 8.96952e-08)
(0.000789548 9.00293e-08 4.48424e-08)
(0.000788235 1.43779e-07 3.15325e-08)
(0.000786988 -9.35626e-08 4.55636e-08)
(0.000785379 -1.30895e-07 1.18004e-07)
(0.00078346 -1.55561e-07 -1.53002e-09)
(0.000781804 -1.26314e-07 -3.33432e-08)
(0.000780656 -3.58466e-07 3.2676e-08)
(0.000779342 -1.10207e-07 6.89209e-08)
(0.000777992 -9.13642e-08 4.5697e-09)
(0.000776407 -3.48594e-08 1.03972e-08)
(0.000774653 -2.31049e-07 4.70366e-08)
(0.000773448 -6.73592e-07 5.60181e-08)
(0.000772266 -2.92763e-07 5.92392e-08)
(0.000770647 -2.10529e-07 6.18281e-08)
(0.000769583 -3.47809e-07 8.83371e-08)
(0.000768053 -3.4175e-07 4.4157e-08)
(0.000766318 1.69145e-07 2.56222e-08)
(0.000765021 7.27857e-08 2.23638e-08)
(0.000763512 3.77837e-08 -6.40665e-08)
(0.000762294 -2.57027e-07 4.14992e-08)
(0.000761184 7.60985e-08 4.36608e-08)
(0.000759682 2.50229e-07 -5.77751e-08)
(0.000757458 3.47155e-07 6.09345e-08)
(-0.00133822 0.0017187 0.00020419)
(0.0148071 0.0081857 -0.000513351)
(0.00622222 -0.0202281 -0.00233185)
(-0.00778274 0.0147746 0.000462775)
(-0.0133153 -0.0231095 0.00129717)
(0.00275908 0.00179918 -0.000217901)
(0.00119463 0.000367368 5.55942e-05)
(0.00127144 0.000125176 3.59286e-07)
(0.00127992 7.65275e-05 3.00188e-07)
(0.00131852 4.78057e-05 3.42523e-07)
(0.00133262 2.99824e-05 3.3026e-07)
(0.0013411 1.84752e-05 2.52127e-07)
(0.00134602 1.15477e-05 2.59292e-07)
(0.00134708 7.85343e-06 3.68714e-07)
(0.00134586 4.92995e-06 3.48372e-07)
(0.00134497 3.06669e-06 4.77769e-07)
(0.0013437 1.94932e-06 3.40222e-07)
(0.00134136 1.47006e-06 3.52264e-07)
(0.00133869 8.64663e-07 3.48286e-07)
(0.00133651 3.63894e-07 4.39814e-07)
(0.00133426 1.83428e-07 3.75304e-07)
(0.00133171 2.45349e-07 3.03377e-07)
(0.00132904 1.21485e-07 2.55885e-07)
(0.00132661 8.1857e-08 2.90269e-07)
(0.0013243 1.12391e-07 3.49324e-07)
(0.00132152 1.80723e-07 2.88883e-07)
(0.00131874 7.54369e-08 2.79387e-07)
(0.00131655 6.39993e-08 3.34762e-07)
(0.00131386 2.71285e-07 3.67944e-07)
(0.0013112 -3.74098e-07 4.74202e-07)
(0.00130863 -9.38081e-07 3.67148e-07)
(0.00130589 -9.87577e-07 1.13654e-07)
(0.00130362 -7.21441e-07 3.41743e-07)
(0.0013017 -1.8695e-07 2.23203e-07)
(0.00129938 1.26807e-07 3.14743e-07)
(0.00129662 7.80946e-08 3.19415e-07)
(0.00129391 -6.40049e-08 3.1687e-07)
(0.00129087 3.35996e-07 2.77126e-07)
(0.00128944 1.05e-06 2.97821e-07)
(0.00128786 4.70767e-07 3.67003e-07)
(0.00128484 1.40304e-07 2.86079e-07)
(0.00128226 1.39215e-08 3.48962e-07)
(0.00128077 -9.427e-07 3.61025e-07)
(0.00127803 -8.30444e-07 2.00861e-07)
(0.00127488 -3.68585e-07 3.3055e-07)
(0.0012727 -2.50621e-07 3.40023e-07)
(0.00127065 -4.0212e-08 3.10287e-07)
(0.00126875 -2.77996e-07 3.11597e-07)
(0.00126588 -5.75522e-07 3.48174e-07)
(0.00126312 -5.98586e-07 2.03926e-07)
(0.00349342 -0.00854903 0.000164179)
(0.020333 -0.00699463 0.00455282)
(-0.0354346 -0.0251571 0.00546367)
(-0.00331765 -0.000937359 0.000166677)
(-0.00316503 -0.00399826 -0.00132221)
(0.000609892 -0.0236496 -0.00137718)
(0.00130026 5.014e-06 -9.3428e-06)
(0.00126081 1.36465e-05 3.33905e-07)
(0.00126477 1.91617e-05 3.69108e-07)
(0.00130397 1.15946e-05 3.27012e-07)
(0.00132263 8.11457e-06 3.31168e-07)
(0.00133429 5.38887e-06 3.33985e-07)
(0.00134076 3.47e-06 3.36037e-07)
(0.00134373 1.72044e-06 3.36194e-07)
(0.00134457 1.16468e-06 3.37113e-07)
(0.00134395 8.78136e-07 3.40345e-07)
(0.00134247 5.71613e-07 3.22942e-07)
(0.00134083 2.30341e-07 2.07211e-07)
(0.00133872 5.18784e-07 3.07626e-07)
(0.00133628 3.01066e-07 3.05142e-07)
(0.00133396 2.88376e-07 3.51928e-07)
(0.00133151 1.03106e-07 3.69081e-07)
(0.00132895 2.08839e-07 2.85355e-07)
(0.00132654 1.65026e-07 6.69721e-07)
(0.00132407 -1.28549e-07 3.4926e-07)
(0.00132148 -4.1131e-07 3.23923e-07)
(0.00131893 -3.71335e-07 2.9723e-07)
(0.00131651 -4.4286e-07 3.28386e-07)
(0.00131353 -9.97903e-07 2.92411e-07)
(0.00131049 -7.12207e-07 3.42159e-07)
(0.00130845 -5.45166e-07 6.97104e-08)
(0.00130628 -2.62483e-07 2.73413e-07)
(0.00130428 6.21377e-07 4.76717e-07)
(0.00130239 6.90244e-07 5.13873e-07)
(0.00129948 1.63736e-07 3.26816e-07)
(0.00129668 2.6181e-07 3.12617e-07)
(0.00129458 3.63569e-07 3.05751e-07)
(0.0012927 6.5946e-07 1.30666e-07)
(0.00128943 1.2508e-06 3.46129e-07)
(0.00128621 6.29002e-07 7.72355e-07)
(0.00128411 1.53592e-07 2.45536e-07)
(0.00128144 -9.4139e-08 3.37955e-07)
(0.0012792 -3.82002e-07 3.03723e-07)
(0.00127817 -1.17172e-06 4.68564e-07)
(0.00127602 -4.1574e-07 3.46189e-07)
(0.00127317 -1.61337e-07 2.48092e-07)
(0.00127072 3.43231e-07 2.10282e-07)
(0.00126815 1.65205e-08 3.10772e-07)
(0.0012658 -2.97641e-07 7.69076e-08)
(0.00126405 -3.58566e-07 4.05093e-07)
(-0.00235467 -0.00103296 -0.000414014)
(-0.0054462 0.00753391 -0.000150127)
(-0.00661008 0.0112089 -0.0137881)
(-0.00782813 -0.00362487 -0.00186565)
(0.00574413 -0.0091426 -0.00142893)
(0.00411132 -0.0051456 -0.0042816)
(0.000974489 -4.46373e-05 7.27558e-05)
(0.00124789 -9.97072e-05 2.90718e-07)
(0.00127758 -1.67156e-05 5.09487e-07)
(0.00130471 -2.39158e-05 3.27997e-07)
(0.00132486 -1.36574e-05 3.32262e-07)
(0.00133529 -9.28239e-06 3.34499e-07)
(0.00134144 -5.93689e-06 3.35812e-07)
(0.00134419 -3.86301e-06 3.37185e-07)
(0.00134481 -2.44353e-06 3.37294e-07)
(0.00134423 -1.64858e-06 3.3812e-07)
(0.00134289 -1.03088e-06 3.34349e-07)
(0.0013413 -6.37459e-07 2.66146e-07)
(0.00133878 -8.95195e-07 3.75852e-07)
(0.00133622 -4.66382e-07 3.24978e-07)
(0.00133401 -2.57439e-07 2.70503e-07)
(0.00133161 -7.05814e-08 3.32739e-07)
(0.00132911 1.35985e-09 3.26074e-07)
(0.00132619 1.24107e-07 2.96516e-07)
(0.00132358 8.05894e-08 3.07737e-07)
(0.00132122 5.4554e-08 3.0674e-07)
(0.0013187 -4.74975e-08 3.49587e-07)
(0.00131578 -6.39202e-08 3.18238e-07)
(0.00131353 -1.47821e-07 2.11802e-07)
(0.00131178 6.55712e-07 2.50844e-07)
(0.0013092 8.81778e-07 4.95393e-07)
(0.00130734 8.76687e-07 4.84584e-07)
(0.00130481 7.74078e-07 2.13154e-07)
(0.00130112 4.69905e-07 1.87795e-07)
(0.00129884 4.43337e-08 3.8068e-07)
(0.00129687 1.60717e-07 3.35543e-07)
(0.0012944 1.28758e-07 2.82094e-07)
(0.00129197 -3.34171e-08 3.57718e-07)
(0.00128939 -3.98609e-07 3.04599e-07)
(0.00128648 -1.53443e-07 3.61368e-07)
(0.00128393 5.24816e-08 3.62168e-07)
(0.00128159 3.00191e-07 3.78356e-07)
(0.00127943 9.56303e-07 4.5064e-07)
(0.001278 1.07161e-06 3.512e-07)
(0.00127615 4.30826e-07 2.5304e-07)
(0.00127365 3.82321e-07 3.78426e-07)
(0.00127087 3.11251e-07 4.59203e-07)
(0.00126795 6.57836e-07 3.33707e-07)
(0.00126542 3.13788e-07 2.28565e-07)
(0.00126394 2.28329e-07 5.28196e-07)
(0.00501695 -0.0119186 0.00383209)
(-0.00417357 0.015106 -0.00260715)
(0.00732753 0.00726653 -0.00176515)
(-0.000599693 0.00630223 0.000442914)
(0.000171302 0.00231678 0.000631921)
(0.0245738 -0.00146457 -0.00103618)
(0.00106305 0.000497978 -0.000156664)
(0.00124175 -0.000132568 3.36814e-07)
(0.00138232 -7.39015e-05 2.98963e-07)
(0.00130813 -5.70337e-05 3.1902e-07)
(0.00134111 -3.3835e-05 3.36339e-07)
(0.00134406 -2.13742e-05 3.36261e-07)
(0.00134761 -1.37555e-05 3.38012e-07)
(0.00134814 -8.46873e-06 3.38214e-07)
(0.00134737 -4.9957e-06 3.37778e-07)
(0.00134574 -3.03528e-06 3.36729e-07)
(0.00134375 -2.06559e-06 3.36714e-07)
(0.00134101 -1.33321e-06 2.77534e-07)
(0.00133894 -1.15214e-06 2.71747e-07)
(0.00133708 -1.05766e-06 3.00816e-07)
(0.00133446 -6.22957e-07 2.51383e-07)
(0.00133184 -4.17242e-07 3.3241e-07)
(0.00132919 -4.54855e-07 2.59622e-07)
(0.00132664 -2.49966e-07 3.89246e-07)
(0.00132398 2.73479e-08 2.75317e-07)
(0.00132132 2.55824e-07 2.70347e-07)
(0.00131879 4.60016e-07 3.91086e-07)
(0.00131638 7.70081e-07 3.56148e-07)
(0.00131443 1.36777e-06 3.51317e-07)
(0.00131177 1.07049e-06 3.07211e-07)
(0.00130872 7.42716e-07 3.57164e-07)
(0.00130614 9.50687e-07 2.65572e-07)
(0.00130376 7.73352e-08 3.19051e-07)
(0.00130147 -1.07613e-08 3.25077e-07)
(0.00129909 2.89311e-07 2.9759e-07)
(0.00129678 9.11327e-08 3.07575e-07)
(0.00129434 -3.67763e-08 3.04148e-07)
(0.00129204 -1.95659e-07 3.1553e-07)
(0.00128928 -4.89228e-07 1.96066e-07)
(0.00128677 -4.41632e-07 3.28212e-07)
(0.00128468 -8.04416e-09 3.21795e-07)
(0.00128257 2.71602e-07 3.22203e-07)
(0.00128016 6.29955e-07 5.32484e-07)
(0.0012775 1.02311e-06 -4.00264e-08)
(0.00127515 4.00755e-07 1.83735e-07)
(0.00127301 2.23019e-07 3.17373e-07)
(0.00127106 1.86e-07 3.25679e-07)
(0.00126814 5.21446e-07 2.75672e-07)
(0.00126526 3.87494e-07 3.72814e-07)
(0.00126337 4.66558e-07 5.1268e-07)
(0.00856645 -0.00204896 0.000541268)
(-0.00748344 -0.0371943 0.000131878)
(0.00527546 -0.00495965 0.0269318)
(0.00186769 -0.00340718 0.000207223)
(0.00580524 0.00208418 0.000974249)
(0.0018379 -0.000661149 -0.00173247)
(0.00112748 -0.000284891 -7.4194e-05)
(0.00130458 -0.000250083 4.97572e-07)
(0.00147002 -0.000112472 6.70088e-07)
(0.00135579 -6.87493e-05 3.95308e-07)
(0.00136978 -4.16975e-05 3.61582e-07)
(0.00136061 -2.59393e-05 3.9905e-07)
(0.00135771 -1.56177e-05 5.81632e-07)
(0.00135523 -1.00191e-05 3.41136e-07)
(0.00135165 -6.71859e-06 3.56625e-07)
(0.00134793 -4.3758e-06 2.04336e-07)
(0.00134504 -2.6523e-06 3.36498e-07)
(0.00134245 -1.65615e-06 3.32438e-07)
(0.00133914 -6.15796e-07 3.42255e-07)
(0.00133689 -6.95333e-08 4.43272e-07)
(0.00133481 -3.40576e-07 3.68555e-07)
(0.00133183 -1.24518e-07 3.40728e-07)
(0.00132933 -1.02576e-07 8.38652e-07)
(0.0013268 -3.603e-08 3.82429e-07)
(0.00132422 -1.19495e-08 2.5216e-07)
(0.00132176 -1.96946e-07 3.6713e-07)
(0.00131934 2.32509e-07 3.83438e-07)
(0.0013169 4.42365e-07 2.90879e-07)
(0.00131389 6.76699e-07 4.92074e-07)
(0.00131098 4.38144e-07 3.79561e-07)
(0.00130904 2.36649e-07 2.87358e-07)
(0.0013065 -1.87421e-07 2.61507e-07)
(0.0013036 2.92492e-07 3.12174e-07)
(0.00130138 1.52694e-07 3.2516e-07)
(0.00129897 1.71644e-07 2.95805e-07)
(0.00129646 -4.92659e-08 3.21165e-07)
(0.00129404 -1.43185e-07 1.98545e-07)
(0.00129141 -2.40865e-07 3.34021e-07)
(0.00128909 -3.20306e-07 3.13558e-07)
(0.00128709 -1.83388e-07 4.09574e-08)
(0.00128482 8.74094e-08 3.39489e-07)
(0.00128239 2.42265e-07 1.07962e-06)
(0.00128036 7.04768e-08 1.21485e-07)
(0.00127771 -4.69202e-09 2.58329e-07)
(0.00127515 -1.79182e-07 3.16335e-07)
(0.00127338 -3.42356e-07 3.16873e-07)
(0.00127124 -7.33039e-07 5.78227e-08)
(0.0012682 -1.48869e-06 2.75309e-07)
(0.00126534 -4.76777e-07 3.5417e-07)
(0.00126288 3.49965e-08 3.29321e-07)
(-0.102331 0.0457917 -0.0769541)
(-0.00622056 -0.0155377 -0.0042889)
(0.0167879 -0.0155252 -0.00308721)
(0.00851517 0.0119495 0.00342348)
(0.00751832 0.0049241 -0.00201307)
(0.00147819 -0.00132814 0.000900852)
(0.00186216 -0.00150561 -4.7782e-05)
(0.00145624 -0.000158262 9.81146e-07)
(0.00153693 -6.85519e-05 6.58073e-07)
(0.00139732 -4.45187e-05 4.05289e-07)
(0.00139501 -2.87582e-05 3.08209e-07)
(0.00137689 -1.84547e-05 3.08936e-07)
(0.00136765 -1.12165e-05 3.73738e-07)
(0.00135936 -7.3575e-06 3.42124e-07)
(0.00135448 -5.0783e-06 6.51766e-07)
(0.00135086 -3.37217e-06 3.98456e-07)
(0.00134717 -2.03754e-06 3.37919e-07)
(0.00134357 -1.25236e-06 3.51876e-07)
(0.00134093 -8.03614e-07 2.9691e-07)
(0.00133743 1.85249e-07 3.12576e-07)
(0.00133439 2.31274e-07 4.29357e-07)
(0.00133214 1.8119e-07 3.98815e-07)