/*--------------------------------*- C++ -*----------------------------------*\
| =========                 |                                                 |
| \\      /  F ield         | OpenFOAM: The Open Source CFD Toolbox           |
|  \\    /   O peration     | Version:  5.0                                   |
|   \\  /    A nd           | Web:      www.OpenFOAM.org                      |
|    \\/     M anipulation  |                                                 |
\*---------------------------------------------------------------------------*/
FoamFile
{
    version     2.0;
    format      ascii;
    class       volVectorField;
    location    "1.7";
    object      U_0;
}
// * * * * * * * * * * * * * * * * * * * * * * * * * * * * * * * * * * * * * //

dimensions      [0 1 -1 0 0 0 0];

internalField   nonuniform List<vector> 
8409
(
(-0.00829082 -0.00840767 0.000116082)
(0.00802728 -0.00553194 -0.000649634)
(-0.00560576 -0.00359781 -0.000628667)
(-0.0133723 0.00940361 -0.00126989)
(-0.00721716 -0.0084136 0.000335077)
(0.00147951 0.00218667 -1.7165e-05)
(0.000410467 8.2296e-05 4.85826e-06)
(0.000769862 4.57127e-05 -1.54556e-06)
(0.000771318 2.90366e-05 -6.12831e-08)
(0.000793097 1.88281e-05 1.54979e-07)
(0.000801079 1.21472e-05 1.18754e-07)
(0.000806114 7.60584e-06 8.267e-08)
(0.000809024 4.79444e-06 3.1482e-09)
(0.000809805 3.32138e-06 5.79152e-08)
(0.000809228 2.12502e-06 5.38773e-08)
(0.00080871 1.36337e-06 7.93894e-08)
(0.000807898 7.67853e-07 5.7266e-08)
(0.000806725 4.06237e-07 8.48119e-08)
(0.000805049 -3.78136e-08 9.93196e-08)
(0.000803574 -2.58492e-07 9.30578e-08)
(0.000802609 -2.43626e-07 4.71796e-08)
(0.00080112 -4.60704e-08 8.92797e-08)
(0.000799341 -2.3653e-08 5.52117e-08)
(0.000797788 -4.50089e-09 4.58781e-08)
(0.000796324 -2.67692e-08 6.15586e-08)
(0.000794769 -3.10546e-08 5.78131e-08)
(0.000793203 -2.6981e-08 4.99947e-08)
(0.000791988 -1.38482e-08 4.95289e-08)
(0.000790014 1.65471e-07 3.9183e-08)
(0.000788042 -1.60348e-07 7.09079e-08)
(0.000786829 -6.5446e-07 -5.97075e-08)
(0.000785077 -5.74895e-07 7.87117e-09)
(0.000783704 -4.71644e-07 8.56456e-08)
(0.000782689 -2.7543e-07 5.99151e-08)
(0.000781206 -7.99635e-08 4.73283e-08)
(0.000779556 -3.09451e-08 5.62355e-08)
(0.000778011 1.54793e-08 7.96136e-08)
(0.00077648 1.52749e-07 2.8827e-08)
(0.00077494 3.51214e-07 -5.47056e-09)
(0.000773775 4.44493e-07 6.87679e-08)
(0.00077254 9.13717e-08 5.50099e-08)
(0.00077086 4.42768e-09 7.34567e-08)
(0.000769505 -2.91011e-07 9.30433e-08)
(0.000768141 -3.95829e-07 2.44007e-07)
(0.000766594 -2.1774e-07 4.05483e-08)
(0.00076511 -1.82123e-07 5.10644e-08)
(0.000763761 -2.13438e-07 6.22887e-08)
(0.000762452 -5.54378e-07 4.01922e-08)
(0.000760805 -4.88969e-07 -1.89163e-08)
(0.000759048 -2.60129e-07 7.25753e-08)
(0.00452587 -0.0131299 3.1216e-05)
(-0.00846149 0.000759946 0.000775126)
(-0.00485252 0.00913642 0.00139536)
(-0.00019825 -0.0175017 0.000724457)
(0.020967 -0.00702026 -0.000641462)
(-0.00258389 -0.0025623 4.89068e-05)
(0.000462685 -2.14391e-05 2.69936e-07)
(0.000778498 -5.59368e-06 -2.01275e-06)
(0.000771972 1.59819e-06 -1.07145e-07)
(0.000790286 3.35299e-07 6.99257e-08)
(0.000798704 5.57518e-07 4.90641e-08)
(0.000804232 4.46647e-07 5.59931e-08)
(0.00080729 3.14676e-07 5.61304e-08)
(0.000808645 -2.50951e-08 5.18897e-08)
(0.000808919 8.53425e-09 5.20442e-08)
(0.000808408 1.07564e-07 2.70517e-08)
(0.00080744 9.3977e-08 -9.60106e-08)
(0.000806266 6.78716e-08 7.64876e-08)
(0.000805141 2.36522e-07 4.43321e-08)
(0.000803933 3.15602e-07 3.08536e-08)
(0.000802387 3.73671e-07 4.43502e-08)
(0.000800815 6.55247e-08 5.06223e-08)
(0.00079925 6.26943e-08 2.78493e-08)
(0.000797722 5.56889e-08 2.38004e-08)
(0.000796214 -1.14175e-07 5.87957e-08)
(0.000794722 -2.37093e-07 4.88803e-08)
(0.000793205 -3.02453e-07 3.63554e-08)
(0.000791711 -3.76737e-07 5.055e-08)
(0.000790001 -1.00317e-06 6.1171e-08)
(0.000787912 -6.889e-07 9.07265e-08)
(0.000786542 -5.27358e-07 1.40149e-07)
(0.00078555 -3.00547e-07 5.58178e-08)
(0.000784167 3.47235e-07 1.93793e-07)
(0.00078285 5.39462e-07 2.05607e-07)
(0.000781276 2.31378e-07 5.29513e-08)
(0.000779644 2.04134e-07 3.76464e-08)
(0.000778228 2.19079e-07 4.36453e-08)
(0.000776766 2.3561e-07 5.64022e-08)
(0.000775257 3.48259e-07 4.02415e-08)
(0.000773556 4.55991e-07 -1.13395e-09)
(0.000771977 2.36736e-08 5.90189e-08)
(0.000770509 -2.81718e-07 7.83248e-08)
(0.000769129 -5.70927e-07 2.37481e-08)
(0.000768044 -2.77215e-07 9.46454e-08)
(0.000766681 -7.16908e-08 5.41678e-08)
(0.000765145 -1.0363e-07 6.11533e-08)
(0.000763698 -1.70891e-08 8.47212e-08)
(0.000762286 -1.30625e-07 5.54858e-08)
(0.000760787 -2.91831e-07 6.76129e-08)
(0.000759837 -2.39657e-07 2.51723e-08)
(-0.00465873 -0.0119552 -0.000169106)
(0.00725622 0.00693338 -0.00019903)
(-0.00739213 0.021955 -0.00263643)
(-0.0150027 -0.00490595 -0.00102908)
(0.00721423 0.0192527 -0.000289461)
(-0.000842779 0.00170406 -0.000169802)
(0.000424092 -0.000164635 3.90214e-05)
(0.000769379 -6.14743e-05 -2.26389e-06)
(0.000778848 -1.20719e-05 -2.51194e-09)
(0.000791824 -1.6384e-05 5.1075e-08)
(0.000801238 -9.80689e-06 6.73203e-08)
(0.000805822 -6.74874e-06 5.7205e-08)
(0.000808443 -4.36867e-06 5.7415e-08)
(0.000809428 -2.85321e-06 5.7515e-08)
(0.000809399 -1.83029e-06 5.58702e-08)
(0.000808819 -1.21098e-06 5.68458e-08)
(0.00080785 -7.2215e-07 5.61631e-08)
(0.000806904 -3.91302e-07 9.23206e-08)
(0.000805359 -3.32956e-07 1.12482e-07)
(0.000803744 -1.59457e-07 4.32445e-08)
(0.000802295 -2.65281e-07 4.24373e-08)
(0.00080073 -6.88312e-08 4.9768e-08)
(0.000799327 -9.96544e-09 1.44089e-07)
(0.000797566 1.40001e-08 -7.29832e-08)
(0.000795958 6.7823e-08 5.17006e-08)
(0.000794535 4.71633e-08 3.6312e-08)
(0.000793031 -4.20927e-08 5.66624e-08)
(0.000791117 -7.87776e-08 6.06878e-08)
(0.00078963 -1.14439e-07 -5.00311e-08)
(0.000788643 3.03914e-07 3.85753e-08)
(0.000787319 7.40826e-07 7.94083e-08)
(0.000786171 7.26738e-07 7.48796e-08)
(0.000784752 4.76741e-07 2.91053e-07)
(0.000782541 4.21307e-07 1.37983e-07)
(0.000780783 1.97199e-07 9.02197e-08)
(0.000779538 2.00861e-07 5.48247e-08)
(0.000778049 1.41061e-07 5.66666e-08)
(0.000776639 8.28208e-08 5.30334e-08)
(0.000775212 1.20541e-07 4.31261e-08)
(0.000773366 -7.56007e-10 1.15555e-07)
(0.000771616 3.78354e-08 6.03596e-08)
(0.000770119 4.40146e-08 -1.39694e-07)
(0.000769515 5.74475e-07 4.13362e-08)
(0.000768769 2.78009e-07 8.07412e-08)
(0.000766814 1.3744e-07 5.73157e-08)
(0.00076518 1.69391e-07 5.0118e-08)
(0.000763729 2.5627e-07 3.36123e-08)
(0.00076211 1.78258e-07 5.55408e-08)
(0.000760675 1.66964e-07 5.85331e-08)
(0.00075971 8.87471e-08 6.87505e-08)
(-0.0195116 -0.00573906 0.000984228)
(0.00439028 0.000487459 -0.000132613)
(0.00720369 -0.00689958 -0.00124669)
(0.0169692 -0.00123316 0.000148921)
(-0.000690193 0.0007055 0.000565938)
(0.00520024 -0.00245879 -0.000226139)
(0.00157607 0.000396942 -1.90979e-05)
(0.000424821 -4.33504e-05 -1.57953e-06)
(0.000839744 -4.15503e-05 -1.20592e-06)
(0.000793303 -3.26658e-05 -1.78369e-07)
(0.000810868 -1.9441e-05 1.72266e-07)
(0.000811106 -1.23551e-05 4.74997e-08)
(0.000812209 -7.95859e-06 6.59679e-08)
(0.000811851 -4.92403e-06 5.71365e-08)
(0.000810993 -3.00655e-06 5.39077e-08)
(0.000809807 -1.8332e-06 5.33996e-08)
(0.000808474 -1.17931e-06 5.03645e-08)
(0.000806759 -6.82637e-07 8.39124e-08)
(0.000805435 -6.8545e-07 5.49199e-08)
(0.000804022 -4.83159e-07 2.98988e-08)
(0.000802503 -4.3397e-07 7.34707e-08)
(0.000801136 -2.63967e-07 5.31138e-08)
(0.000799354 -2.54354e-07 4.82672e-09)
(0.000797819 -1.27611e-07 5.04972e-08)
(0.000796255 6.10689e-08 2.84722e-08)
(0.000794585 2.08844e-07 3.2043e-08)
(0.000793047 2.87182e-07 6.91955e-08)
(0.000791621 3.67121e-07 8.53741e-08)
(0.000790477 9.1682e-07 2.87664e-08)
(0.000788978 8.54158e-07 2.96754e-08)
(0.000787065 8.40726e-07 2.34235e-08)
(0.000785214 7.88555e-07 -5.36391e-09)
(0.000783781 2.4765e-07 4.76926e-08)
(0.000782498 -5.45071e-08 4.88531e-08)
(0.000780999 1.12205e-07 -3.33198e-08)
(0.000779574 9.5688e-08 4.26578e-08)
(0.00077808 9.84907e-08 4.7373e-08)
(0.00077674 4.58085e-08 3.86349e-08)
(0.000775153 -3.1079e-07 4.85801e-09)
(0.000773453 -3.20959e-07 3.44335e-08)
(0.000772033 1.36123e-08 5.45419e-08)
(0.000771177 2.53779e-07 6.11532e-08)
(0.000769417 5.73713e-07 4.51293e-08)
(0.000767494 2.86215e-07 1.29297e-08)
(0.000766541 -3.60806e-08 4.7687e-08)
(0.00076529 2.86756e-08 4.44173e-08)
(0.000763706 1.29334e-07 3.81706e-08)
(0.000762172 1.06044e-07 -1.26429e-07)
(0.000760672 2.47895e-07 3.72092e-08)
(0.000759517 2.18006e-07 5.20123e-08)
(-0.0112105 -0.00934133 0.000571606)
(-0.00109624 -0.000192267 0.000338232)
(-0.0107997 0.00864371 -0.00219281)
(-0.00217189 -0.000640901 0.000549946)
(0.00375902 -0.0142146 -0.000397302)
(-0.00675864 -0.00861864 -0.000332574)
(0.000933247 -0.00034744 0.00011709)
(0.000440772 -7.64642e-05 -1.82439e-06)
(0.000888782 -6.12376e-05 -1.45382e-06)
(0.000820005 -3.69744e-05 -4.46077e-07)
(0.000826831 -2.21939e-05 1.56894e-07)
(0.000820301 -1.36764e-05 4.13621e-07)
(0.00081781 -8.13509e-06 1.1745e-07)
(0.000815667 -5.14102e-06 5.67316e-08)
(0.000813292 -3.29956e-06 5.50712e-08)
(0.000811121 -2.11079e-06 5.80902e-08)
(0.000809299 -1.30444e-06 5.20666e-08)
(0.000807529 -8.39536e-07 4.90031e-08)
(0.000805614 -3.51974e-07 2.15849e-07)
(0.000804063 -2.31043e-07 -3.45703e-08)
(0.000802573 -1.00562e-07 6.80748e-08)
(0.000800958 -5.26468e-08 7.8333e-08)
(0.0007995 -4.94974e-08 7.45696e-08)
(0.000797962 5.14881e-08 1.16286e-07)
(0.000796379 5.50531e-08 7.56745e-08)
(0.000794816 3.9645e-08 6.67631e-08)
(0.000793226 1.5437e-07 6.94295e-08)
(0.000791899 2.17987e-07 9.75935e-09)
(0.000790231 2.29275e-07 4.32208e-09)
(0.00078854 1.26879e-07 2.70406e-08)
(0.000787228 2.2479e-07 -4.0296e-08)
(0.000785424 -1.81716e-07 4.21087e-08)
(0.000783694 1.33518e-07 4.29437e-08)
(0.00078237 4.33762e-08 5.19257e-08)
(0.000780971 1.02567e-07 6.55573e-08)
(0.000779521 -3.74746e-08 4.81779e-08)
(0.000777986 -1.32717e-07 2.12529e-08)
(0.000776128 -1.51897e-07 4.56777e-08)
(0.000774756 -2.04381e-07 1.06152e-07)
(0.000773774 -1.03368e-07 9.71227e-08)
(0.000772335 1.22624e-07 6.14055e-08)
(0.000770816 4.00908e-07 1.58491e-07)
(0.000769552 7.71373e-08 6.6592e-08)
(0.000768003 8.21114e-08 -1.7104e-08)
(0.00076649 -1.62537e-08 4.4502e-08)
(0.000765386 -1.96277e-07 4.62135e-08)
(0.000763825 -4.43765e-07 -2.33054e-08)
(0.000762257 -4.03828e-07 -5.18637e-09)
(0.000760809 -3.30005e-07 4.04556e-09)
(0.00075913 7.20057e-08 9.08033e-08)
(0.0170729 0.00837144 -0.00225901)
(-0.00920895 0.0038543 -0.00216104)
(-0.00177867 -0.00346605 0.000399318)
(0.016447 -0.00175569 0.000702351)
(-0.00449191 -0.00338789 0.000305142)
(0.000419489 -0.0017112 -0.000134314)
(0.00114537 -0.000668853 9.9962e-05)
(0.000484588 -4.62344e-05 -2.06751e-06)
(0.000926751 -3.3399e-05 -1.78131e-06)
(0.000842534 -2.08546e-05 -4.75328e-07)
(0.000840204 -1.31785e-05 1.41309e-07)
(0.000828808 -8.29944e-06 1.1958e-07)
(0.000822957 -4.91521e-06 8.28536e-08)
(0.000817943 -3.1726e-06 4.84915e-08)
(0.000814811 -2.07633e-06 4.04953e-08)
(0.00081232 -1.36146e-06 9.1354e-08)
(0.000810075 -8.58195e-07 5.38728e-08)
(0.000807957 -6.21385e-07 2.44173e-08)
(0.000806199 -4.55905e-07 3.52055e-08)
(0.000804338 -6.65226e-08 6.36439e-08)
(0.000802726 1.0129e-07 -1.55438e-07)
(0.0008012 1.10719e-07 7.85593e-08)
(0.000799484 1.65327e-07 4.62168e-08)
(0.000797949 8.58739e-08 8.15085e-08)
(0.000796241 8.29502e-08 3.72024e-08)
(0.000794708 5.77362e-08 3.90545e-08)
(0.00079327 -4.4021e-08 4.09436e-08)
(0.000791712 -1.62738e-07 1.92416e-08)
(0.000790361 -2.12694e-07 4.60083e-08)
(0.00078897 -3.93278e-07 8.77664e-08)
(0.000786678 -6.64848e-07 -6.77231e-09)
(0.000785098 -4.63727e-07 -8.64508e-09)
(0.000784062 -3.26921e-07 1.22163e-08)
(0.000782458 -1.81563e-07 3.96724e-08)
(0.000780897 -1.76654e-07 6.1088e-08)
(0.000779279 -4.88907e-08 4.9495e-08)
(0.000777938 -2.52735e-08 6.63669e-08)
(0.000776652 2.12276e-07 6.35429e-08)
(0.000775215 3.44545e-07 1.17673e-07)
(0.000773862 2.78818e-07 7.06524e-08)
(0.000772663 2.97728e-07 2.80029e-08)
(0.000771119 3.33705e-07 -3.51642e-08)
(0.000769018 2.67338e-07 -2.34951e-09)
(0.000767378 4.11849e-08 1.15207e-08)
(0.000766195 2.38047e-08 3.97043e-08)
(0.000764759 -1.67768e-07 4.71178e-08)
(0.000763451 -5.9175e-07 -3.76201e-07)
(0.000762318 -5.80395e-07 2.93446e-08)
(0.000761268 -4.73999e-07 7.96583e-08)
(0.000759839 -2.15359e-07 1.84666e-07)
(-0.0093071 0.0193431 -0.00143096)
(-0.00862643 -0.00175126 0.000169846)
(0.000368921 0.00102511 0.0020469)
(0.0100267 -0.00606996 0.000368115)
(0.0011034 -0.00105405 0.000307128)
(0.00481192 0.000139703 0.000235837)
(0.00133946 -0.000231908 0.000180687)
(0.000523033 6.2116e-06 3.2233e-09)
(0.000927559 -6.18663e-06 -1.63068e-06)
(0.000845466 2.18888e-06 -3.67236e-07)
(0.000842627 -4.66801e-08 1.61613e-07)
(0.000830694 2.11131e-07 4.32444e-08)
(0.000824259 -1.83656e-07 5.59377e-08)
(0.00081924 -4.59093e-08 5.27444e-08)
(0.000815572 4.66793e-08 5.33622e-08)
(0.000812655 8.26035e-08 5.4157e-08)
(0.000810231 6.04493e-08 5.33678e-08)
(0.000808036 -6.06674e-09 9.5149e-08)
(0.000806309 -3.85186e-08 5.4188e-08)
(0.00080476 -6.0851e-08 4.08987e-08)
(0.000802793 1.53446e-07 5.82439e-08)
(0.000801036 3.83242e-08 4.69979e-08)
(0.000799468 1.18163e-07 -4.05958e-08)
(0.000797857 2.88956e-08 5.7901e-08)
(0.000796343 3.48428e-08 1.19071e-08)
(0.000794657 1.6384e-07 1.79979e-07)
(0.00079295 -3.90944e-08 8.09764e-08)
(0.000791689 -1.12507e-07 6.88811e-08)
(0.000789946 -4.57681e-07 4.88336e-08)
(0.000787978 -7.9283e-07 4.79739e-08)
(0.000787145 -7.2499e-07 1.35812e-07)
(0.000785851 -2.02184e-07 6.80752e-08)
(0.00078405 -1.68248e-07 4.14871e-08)
(0.000782561 -1.35126e-07 3.56484e-08)
(0.000781138 -1.29036e-07 1.0601e-07)
(0.000779711 -8.25841e-09 7.61512e-08)
(0.000778313 8.24244e-08 5.12305e-08)
(0.00077659 -2.69059e-08 2.96459e-08)
(0.000774838 1.33927e-07 4.67062e-08)
(0.000773713 2.76823e-07 1.28427e-08)
(0.000772402 4.64386e-09 4.306e-08)
(0.000770776 -2.83441e-07 5.91328e-09)
(0.000769185 -3.48314e-07 3.98649e-08)
(0.000767698 -1.24096e-07 2.97623e-08)
(0.00076623 -3.62354e-08 2.71692e-10)
(0.000764619 4.54537e-08 4.88482e-08)
(0.000763313 7.02218e-08 -1.19563e-07)
(0.00076241 -2.09292e-07 7.156e-08)
(0.000761274 -9.88916e-08 8.87269e-08)
(0.00075999 -2.27283e-07 3.72581e-08)
(0.00495671 -0.0129872 5.85425e-05)
(0.00340611 -0.0249739 0.000936701)
(-0.0241567 0.0167033 -0.00068515)
(-0.0147948 -0.0223776 -0.00479021)
(0.00437456 0.0165538 -0.000841646)
(0.002672 -0.00332618 -0.000703658)
(0.000860133 0.000222152 -9.40999e-06)
(0.000917453 0.000106741 -2.41558e-06)
(0.000872361 2.70672e-05 -6.04905e-08)
(0.000850191 2.28069e-05 7.85193e-08)
(0.000837692 1.28317e-05 2.03487e-08)
(0.000828616 8.1261e-06 3.99944e-08)
(0.000822623 4.95585e-06 4.98325e-08)
(0.000818224 3.0546e-06 4.93606e-08)
(0.000814967 1.89548e-06 5.1517e-08)
(0.000812334 1.22004e-06 5.15651e-08)
(0.000809962 7.70999e-07 1.10996e-07)
(0.000807831 6.03306e-07 6.45482e-08)
(0.00080613 7.12084e-07 1.13746e-07)
(0.000804576 4.02182e-07 7.36048e-08)
(0.00080285 1.56449e-07 4.86727e-08)
(0.000801155 1.11383e-07 7.14183e-08)
(0.000799472 -6.46703e-08 4.28748e-08)
(0.000797845 -9.20231e-09 5.22219e-08)
(0.000796408 -1.49122e-07 7.48913e-08)
(0.000794615 -2.8171e-07 2.73254e-08)
(0.000792924 -9.72579e-08 -2.06511e-07)
(0.000791192 2.65517e-08 6.96885e-08)
(0.000789515 -1.77366e-07 3.51001e-08)
(0.000788642 3.18912e-07 7.49071e-08)
(0.000787422 4.6436e-07 9.20706e-08)
(0.000785798 1.8222e-07 3.17762e-08)
(0.000784147 2.72692e-07 4.98569e-08)
(0.000782508 7.90882e-08 4.84472e-08)
(0.000781057 5.27817e-08 4.90547e-08)
(0.000779545 -9.37942e-08 2.74574e-08)
(0.000777915 -1.37559e-07 5.83955e-08)
(0.000776717 -3.02463e-07 6.19247e-08)
(0.000775594 4.33687e-08 4.33053e-08)
(0.0007737 1.23131e-07 7.52715e-08)
(0.000771962 -6.31212e-08 1.66134e-08)
(0.00077068 -8.89853e-08 4.88245e-08)
(0.00076922 -1.19499e-07 5.43393e-08)
(0.000767769 -8.58035e-08 5.12531e-08)
(0.000766408 7.70536e-09 5.59235e-08)
(0.000764893 1.40264e-07 4.56024e-08)
(0.000763133 5.05357e-07 5.58065e-08)
(0.000762109 6.0952e-07 7.03263e-08)
(0.000761254 1.15573e-07 5.26228e-08)
(0.000760244 -9.13184e-09 1.00817e-07)
(0.00151352 0.00323599 -0.000156822)
(-0.0072411 -0.00466098 -0.000110046)
(-0.00517627 -0.00615143 0.00133993)
(-0.000787229 0.00593585 0.000860612)
(-0.00266356 0.0190495 -0.00173796)
(0.0212539 0.00226434 0.000705578)
(0.000206349 4.92168e-05 1.99217e-05)
(0.000843714 8.47889e-05 -2.7622e-06)
(0.000830031 5.05672e-05 4.94921e-08)
(0.000827517 3.23411e-05 7.73714e-08)
(0.000824119 1.99004e-05 5.70581e-08)
(0.000820757 1.26082e-05 5.04213e-08)
(0.000817862 7.89299e-06 5.18509e-08)
(0.000815379 4.71876e-06 5.50026e-08)
(0.000813257 2.95816e-06 5.53706e-08)
(0.000811235 1.8758e-06 1.11738e-07)
(0.000809451 1.19829e-06 2.8315e-08)
(0.000807956 8.30668e-07 3.61126e-07)
(0.000806053 7.61262e-07 3.59221e-08)
(0.000804063 7.09842e-07 7.16862e-08)
(0.000802428 4.56023e-07 5.11646e-08)
(0.00080076 1.29224e-07 6.28321e-08)
(0.000799317 -3.50477e-08 6.7903e-08)
(0.000797754 -8.98829e-08 5.30746e-08)
(0.000796004 -1.3095e-07 2.82569e-08)
(0.000794724 -2.19593e-07 6.41857e-08)
(0.000793338 -4.62024e-08 5.03349e-08)
(0.00079159 -1.28543e-08 4.9965e-08)
(0.000790311 1.77373e-07 1.12006e-07)
(0.000788779 5.22386e-07 4.16396e-08)
(0.000786972 4.13834e-07 1.65957e-07)
(0.000785609 2.32056e-07 6.79513e-08)
(0.00078392 2.96333e-08 7.62756e-08)
(0.000782285 -5.41279e-08 -2.0878e-08)
(0.000780922 -9.0767e-08 4.78157e-08)
(0.000779474 -1.24183e-07 6.84103e-08)
(0.000778054 -1.06248e-07 -6.04679e-08)
(0.000776817 -5.6767e-08 4.76833e-08)
(0.00077537 -4.013e-07 8.39611e-08)
(0.00077358 -6.17192e-07 3.85551e-08)
(0.000772137 -2.56475e-07 4.64039e-08)
(0.000770707 -1.65909e-07 -1.99214e-08)
(0.00076919 -1.22867e-08 6.12511e-08)
(0.000767859 1.59805e-07 4.20688e-08)
(0.000766513 1.32789e-07 5.00605e-08)
(0.000765239 1.63556e-07 5.03034e-08)
(0.000763897 3.30711e-07 4.08875e-08)
(0.000761919 9.89239e-07 2.6579e-08)
(0.0007605 7.50901e-07 -9.58523e-08)
(0.000759854 3.2666e-07 9.1716e-08)
(-0.00183023 -0.00606419 0.000436353)
(-0.0147634 0.000277517 0.000468779)
(0.00491725 0.00128302 0.000658361)
(0.00149946 -0.00599925 -0.00166916)
(0.0132454 -0.000942619 0.000736737)
(0.00445463 0.000671215 -0.000805461)
(0.000439865 7.13013e-05 -8.69808e-07)
(0.000811179 7.70338e-05 -2.67498e-06)
(0.000806005 4.65561e-05 -1.71245e-07)
(0.000811553 3.03764e-05 1.78216e-08)
(0.00081283 1.92304e-05 7.21048e-08)
(0.000813484 1.20818e-05 2.85965e-07)
(0.000812684 7.60329e-06 5.50031e-08)
(0.000812007 5.06714e-06 2.51692e-08)
(0.000811383 3.17887e-06 5.38534e-08)
(0.000810115 1.86706e-06 6.61953e-08)
(0.000808643 1.17253e-06 5.31187e-08)
(0.000807276 6.32845e-07 3.66187e-07)
(0.000805973 1.92749e-07 7.15025e-08)
(0.00080419 -1.68101e-07 8.67534e-09)
(0.000802121 -1.9744e-07 2.38403e-08)
(0.00080054 -2.366e-08 1.61841e-07)
(0.000799199 9.10037e-08 5.55404e-08)
(0.000797727 -4.74943e-09 5.00684e-08)
(0.000796249 1.19277e-07 2.19174e-08)
(0.000794723 2.52223e-07 -5.77041e-08)
(0.000793184 1.5655e-07 5.68078e-08)
(0.000791471 1.45802e-07 4.69926e-08)
(0.000790183 4.76412e-07 -1.67586e-09)
(0.000788934 -9.08914e-08 1.02781e-07)
(0.000787056 -1.1288e-07 7.74501e-08)
(0.000785316 -2.065e-07 2.4908e-08)
(0.000783789 -5.40656e-07 2.86982e-08)
(0.000782359 -3.8248e-07 1.43492e-07)
(0.000780971 -2.19711e-07 2.40654e-07)
(0.000779526 -1.57137e-07 5.94315e-08)
(0.000778 -1.54737e-07 4.13337e-08)
(0.000776349 -1.91232e-07 4.80688e-08)
(0.000774896 -4.25383e-07 9.00602e-09)
(0.000773884 -5.36982e-07 6.38464e-08)
(0.000772529 -2.71893e-07 6.49102e-08)
(0.000770986 -2.1678e-07 2.45035e-08)
(0.000769628 -1.50625e-07 4.54802e-08)
(0.00076795 3.56181e-08 3.01724e-08)
(0.000766411 7.62612e-08 -3.43843e-08)
(0.000765137 1.02459e-07 2.01463e-08)
(0.00076416 -2.58521e-08 1.00917e-08)
(0.000762627 -4.54376e-09 1.94263e-08)
(0.00076041 4.02362e-07 -4.41538e-08)
(0.000758902 2.46141e-07 6.61573e-08)
(-0.00158183 0.00141424 0.000242835)
(0.0148035 0.00774888 -0.000469723)
(0.0055126 -0.0210523 -0.0027508)
(-0.00696 0.0218335 0.000827899)
(-0.0132624 -0.0220309 0.00107211)
(0.00292502 0.00125935 -0.000103782)
(0.00122271 0.000238664 5.18728e-05)
(0.00128546 7.56623e-05 3.51332e-07)
(0.00128608 4.8157e-05 2.93969e-07)
(0.00132189 3.11991e-05 3.43075e-07)
(0.00133503 2.01033e-05 3.71377e-07)
(0.00134336 1.25468e-05 3.42945e-07)
(0.00134819 7.90823e-06 2.59257e-07)
(0.00134947 5.47586e-06 1.93886e-07)
(0.00134853 3.49266e-06 3.48581e-07)
(0.00134765 2.23402e-06 3.24646e-07)
(0.00134627 1.26884e-06 3.39899e-07)
(0.00134429 7.12776e-07 3.67212e-07)
(0.0013415 3.8141e-08 3.81567e-07)
(0.00133905 -3.43715e-07 3.68997e-07)
(0.00133736 -3.00926e-07 3.15326e-07)
(0.00133484 2.75846e-08 4.01364e-07)
(0.00133189 3.71276e-08 3.28574e-07)
(0.00132935 4.11936e-08 2.91132e-07)
(0.00132692 4.88467e-08 3.44928e-07)
(0.00132428 6.12211e-08 2.10114e-07)
(0.00132167 2.20135e-08 2.87143e-07)
(0.00131966 -9.91958e-09 3.34009e-07)
(0.0013164 2.58235e-07 3.33478e-07)
(0.00131311 -3.41696e-07 3.55062e-07)
(0.00131104 -1.13177e-06 2.46821e-07)
(0.00130812 -9.85511e-07 1.70174e-07)
(0.00130583 -7.66452e-07 3.70786e-07)
(0.0013042 -3.8117e-07 3.36406e-07)
(0.00130179 -6.12239e-08 3.19877e-07)
(0.00129898 3.06475e-08 3.02714e-07)
(0.00129627 4.79681e-08 3.63109e-07)
(0.00129364 3.04238e-07 2.77391e-07)
(0.00129121 6.68622e-07 1.51297e-07)
(0.00128933 7.26004e-07 3.50664e-07)
(0.00128715 1.57498e-07 3.05462e-07)
(0.00128437 1.31633e-08 3.55036e-07)
(0.00128226 -5.46755e-07 3.76027e-07)
(0.00127987 -6.39693e-07 7.11789e-07)
(0.00127723 -3.88688e-07 3.35448e-07)
(0.00127482 -3.37393e-07 3.28202e-07)
(0.0012725 -3.3543e-07 3.07443e-07)
(0.00127036 -8.52233e-07 3.0513e-07)
(0.00126759 -7.79519e-07 2.16048e-07)
(0.00126464 -4.58851e-07 3.56206e-07)
(0.00387852 -0.00848818 0.000112625)
(0.0193107 -0.00464256 0.00162758)
(-0.0154067 -0.0230765 0.00523749)
(-0.00290061 0.00117267 0.00190137)
(-0.00277029 -0.00341925 -0.00153114)
(0.000871883 -0.0240088 -0.00126404)
(0.00138194 -5.71374e-05 -1.06299e-05)
(0.00129919 -8.71312e-06 3.3867e-07)
(0.00128697 2.75045e-06 3.95795e-07)
(0.00131714 5.14609e-07 3.30662e-07)
(0.00133109 8.52365e-07 3.33592e-07)
(0.00134025 6.7802e-07 3.35872e-07)
(0.00134532 4.72139e-07 3.37312e-07)
(0.00134756 -8.25292e-08 3.36818e-07)
(0.001348 -1.73631e-08 3.37567e-07)
(0.00134714 1.25184e-07 2.77785e-07)
(0.00134555 1.01131e-07 1.62609e-07)
(0.00134363 2.16649e-08 3.82255e-07)
(0.00134163 3.18494e-07 3.41158e-07)
(0.00133953 4.49927e-07 3.04275e-07)
(0.00133702 5.65145e-07 8.33434e-08)
(0.00133439 1.02146e-07 3.51414e-07)
(0.00133176 1.62361e-07 3.19203e-07)
(0.00132928 1.47031e-07 3.08405e-07)
(0.00132676 -1.27313e-07 3.46349e-07)
(0.00132419 -3.47422e-07 3.24529e-07)
(0.00132164 -4.42448e-07 2.98354e-07)
(0.00131916 -6.08353e-07 3.30611e-07)
(0.00131629 -1.65761e-06 4.03224e-07)
(0.00131288 -1.1278e-06 3.57476e-07)
(0.00131065 -8.50863e-07 3.67758e-07)
(0.00130894 -4.86718e-07 3.06949e-07)
(0.00130667 6.67355e-07 6.3026e-07)
(0.00130448 9.50905e-07 7.98856e-07)
(0.00130181 3.93528e-07 3.3463e-07)
(0.00129906 2.97429e-07 3.15839e-07)
(0.00129669 3.39062e-07 3.17226e-07)
(0.00129429 4.28527e-07 3.65328e-07)
(0.00129168 6.78116e-07 3.50312e-07)
(0.00128881 7.83207e-07 3.3274e-07)
(0.00128622 6.98936e-08 3.37874e-07)
(0.00128373 -4.43476e-07 3.82825e-07)
(0.00128146 -8.89111e-07 2.43008e-07)
(0.00127973 -5.94607e-07 3.29845e-07)
(0.00127745 -1.69838e-07 3.55459e-07)
(0.00127491 -2.45712e-07 3.20313e-07)
(0.0012725 -1.7319e-08 3.5261e-07)
(0.00127009 -2.05184e-07 3.19723e-07)
(0.00126758 -4.83203e-07 3.51656e-07)
(0.00126595 -4.09153e-07 2.14967e-07)
(-0.00239257 -0.00110248 -0.000411467)
(-0.00918408 0.00999693 0.00039815)
(-0.0108046 0.0287403 -0.0173305)
(-0.00833314 -0.00484317 -0.000307427)
(0.00589084 -0.0091652 -0.001488)
(0.00432836 -0.00500527 -0.00431287)
(0.00105193 -4.33264e-05 7.66005e-05)
(0.00128299 -0.000101859 2.78685e-07)
(0.00129784 -2.01768e-05 5.14775e-07)
(0.00131958 -2.72625e-05 3.32907e-07)
(0.00133528 -1.63771e-05 3.35576e-07)
(0.00134291 -1.12713e-05 3.37201e-07)
(0.00134726 -7.30151e-06 3.37965e-07)
(0.00134887 -4.77119e-06 3.38422e-07)
(0.0013488 -3.06331e-06 3.3783e-07)
(0.0013478 -2.03404e-06 3.37348e-07)
(0.00134615 -1.22715e-06 3.35745e-07)
(0.00134456 -7.11392e-07 2.88596e-07)
(0.00134204 -6.80279e-07 3.7535e-07)
(0.00133936 -3.36951e-07 3.26531e-07)
(0.00133692 -4.54454e-07 2.91997e-07)
(0.00133433 -1.34074e-07 3.32638e-07)
(0.00133195 -7.39973e-09 4.30295e-07)
(0.00132898 6.97553e-08 -1.33506e-07)
(0.0013263 8.88874e-08 3.42066e-07)
(0.00132389 8.5703e-08 3.07893e-07)
(0.00132135 -3.74498e-08 3.40086e-07)
(0.00131815 -8.03804e-08 3.21371e-07)
(0.00131576 -1.49804e-07 1.26131e-07)
(0.00131413 5.74222e-07 2.65809e-07)
(0.00131185 1.24103e-06 3.24944e-07)
(0.00131001 1.1992e-06 3.2559e-07)
(0.00130763 7.86996e-07 7.97082e-07)
(0.00130385 6.60962e-07 4.58241e-07)
(0.00130097 2.68891e-07 3.73942e-07)
(0.00129891 2.73067e-07 3.36358e-07)
(0.00129644 2.12962e-07 2.81187e-07)
(0.00129406 1.18216e-07 3.43294e-07)
(0.00129165 1.39766e-07 3.29306e-07)
(0.00128856 -1.14703e-08 4.30566e-07)
(0.00128562 5.91422e-08 3.53163e-07)
(0.00128317 1.26562e-07 1.02521e-07)
(0.00128208 1.00663e-06 3.22758e-07)
(0.00128078 5.94055e-07 2.78862e-07)
(0.00127767 3.75835e-07 3.47179e-07)
(0.00127501 3.78415e-07 3.11002e-07)
(0.00127255 4.6446e-07 2.90756e-07)
(0.00126978 3.44617e-07 2.08232e-07)
(0.00126735 2.72848e-07 3.30932e-07)
(0.00126575 1.49665e-07 2.98281e-07)
(0.00495716 -0.0104689 0.00401473)
(-0.00339749 0.0152184 -0.00298399)
(0.00702974 0.00706379 -0.00178039)
(-0.000358963 0.00609377 0.000354184)
(-0.000262427 0.0025157 0.000537125)
(0.0251516 -0.00185393 -0.000943363)
(0.00107416 0.000636633 -0.000147236)
(0.00127018 -0.000125643 6.33103e-08)
(0.00139957 -6.9488e-05 2.95973e-07)
(0.00132222 -5.44367e-05 5.02964e-07)
(0.00135128 -3.24002e-05 3.40783e-07)
(0.00135173 -2.055e-05 3.40442e-07)
(0.00135353 -1.32425e-05 3.38671e-07)
(0.00135291 -8.18613e-06 3.38947e-07)
(0.00135146 -4.97662e-06 3.37762e-07)
(0.00134945 -3.02644e-06 3.37528e-07)
(0.00134722 -1.9517e-06 3.37979e-07)
(0.00134432 -1.11295e-06 3.40774e-07)
(0.0013421 -1.10723e-06 3.42715e-07)
(0.00133982 -8.42654e-07 2.98032e-07)
(0.00133728 -7.3341e-07 3.35992e-07)
(0.00133495 -4.62955e-07 3.34857e-07)
(0.00133201 -4.7063e-07 1.98365e-07)
(0.0013294 -2.33243e-07 3.51622e-07)
(0.00132678 5.77278e-08 2.73816e-07)
(0.00132403 3.18348e-07 2.7144e-07)
(0.00132143 4.79684e-07 4.0286e-07)
(0.00131902 6.8329e-07 4.24281e-07)
(0.00131711 1.60526e-06 3.13573e-07)
(0.00131461 1.4605e-06 5.03484e-07)
(0.00131143 1.40337e-06 3.1247e-07)
(0.00130837 1.36084e-06 3.05893e-07)
(0.00130599 4.04988e-07 3.25441e-07)
(0.00130383 -7.76287e-08 3.27181e-07)
(0.00130132 1.91417e-07 1.61834e-07)
(0.00129899 1.40376e-07 3.08853e-07)
(0.00129649 1.13862e-07 3.15451e-07)
(0.0012942 1.07982e-08 2.67311e-07)
(0.00129152 -5.53856e-07 2.13224e-07)
(0.00128871 -5.68874e-07 3.25222e-07)
(0.00128639 -1.06363e-09 2.75984e-07)
(0.00128491 4.46721e-07 4.74258e-07)
(0.00128204 9.52374e-07 3.67516e-07)
(0.00127894 5.64949e-07 2.19432e-07)
(0.00127718 4.83839e-09 2.7625e-07)
(0.00127501 7.36539e-08 3.20078e-07)
(0.00127245 1.72951e-07 3.0568e-07)
(0.00126985 1.90177e-07 -7.50443e-08)
(0.00126733 3.92859e-07 3.11058e-07)
(0.00126543 3.78722e-07 2.40803e-07)
(0.00944066 0.00322555 -0.00030336)
(-0.00338363 -0.0352593 0.00277546)
(0.00399783 -0.00957396 -0.000263296)
(0.00222405 -0.00469825 0.00041726)
(0.00675039 0.00275138 0.00103038)
(0.00248679 2.62519e-05 -0.00175165)
(0.0011726 -0.000102344 -6.91239e-05)
(0.00131622 -0.000230023 2.4436e-07)
(0.00148148 -0.000102233 6.71818e-07)
(0.00136691 -6.15866e-05 4.13159e-07)
(0.00137798 -3.69111e-05 3.66969e-07)
(0.00136707 -2.27145e-05 8.42548e-07)
(0.00136284 -1.35039e-05 3.35544e-07)
(0.00135929 -8.54544e-06 3.3983e-07)
(0.00135529 -5.5172e-06 3.03202e-07)
(0.00135161 -3.53327e-06 3.49148e-07)
(0.00134856 -2.18207e-06 3.38272e-07)
(0.00134563 -1.4313e-06 3.34863e-07)
(0.00134238 -5.73621e-07 5.08491e-07)
(0.00133983 -3.37411e-07 1.86174e-07)
(0.00133741 -1.98694e-07 3.68867e-07)
(0.00133467 -8.88034e-08 6.79002e-07)
(0.00133224 -8.58644e-08 3.42552e-07)
(0.00132965 5.54505e-08 3.76348e-07)
(0.00132699 8.93147e-08 2.62378e-07)
(0.00132442 -1.99453e-09 3.68492e-07)
(0.0013218 2.38536e-07 3.84438e-07)
(0.00131955 3.77042e-07 2.88826e-07)
(0.00131672 4.58854e-07 2.7221e-07)
(0.00131387 2.9261e-07 3.07199e-07)
(0.00131171 3.80953e-07 -3.2802e-07)
(0.00130876 -2.71683e-07 3.14362e-07)
(0.00130582 2.78481e-07 3.15763e-07)
(0.00130358 1.09771e-07 3.2654e-07)
(0.00130124 2.02919e-07 3.32523e-07)
(0.00129881 -6.00267e-08 3.22496e-07)
(0.00129627 -2.40536e-07 3.38752e-07)
(0.00129323 -2.83726e-07 3.26635e-07)
(0.00129093 -3.60172e-07 4.44824e-07)
(0.00128926 -1.95133e-07 3.3256e-07)
(0.00128689 1.97668e-07 3.62545e-07)
(0.00128436 6.05253e-07 5.50109e-07)
(0.00128222 1.103e-07 3.01406e-07)
(0.00127959 7.88571e-08 -8.40769e-08)
(0.00127706 -1.48828e-07 3.1736e-07)
(0.00127522 -3.82008e-07 3.18703e-07)
(0.0012727 -8.28271e-07 1.58926e-07)
(0.00127006 -7.93685e-07 -6.87178e-09)
(0.00126757 -5.44447e-07 3.13789e-07)
(0.00126479 1.31011e-07 4.12302e-07)
(-0.0284966 0.0170256 0.0105239)
(0.00452893 -0.0120014 -0.000156039)
(0.0115499 -0.0154672 -0.00291204)
(0.0104059 0.012224 0.00329348)
(0.00544071 0.00503198 -0.00133342)
(0.00494981 0.00114137 -0.000751176)
(0.00185999 -0.00117271 -4.88229e-05)
(0.00145458 -0.000139023 7.63302e-07)
(0.00154493 -5.53952e-05 6.46499e-07)
(0.00140455 -3.44826e-05 3.18735e-07)
(0.00140022 -2.17743e-05 3.10251e-07)
(0.00138119 -1.37243e-05 4.44203e-07)
(0.00137137 -8.11002e-06 3.41548e-07)
(0.00136297 -5.24259e-06 3.40777e-07)
(0.00135777 -3.46095e-06 3.74123e-07)
(0.00135366 -2.2747e-06 3.83337e-07)
(0.00134987 -1.41989e-06 3.38446e-07)
(0.00134634 -1.00641e-06 3.14191e-07)
(0.00134348 -7.41057e-07 3.22673e-07)
(0.00134029 -4.28212e-08 3.68503e-07)
(0.00133759 2.05023e-07 2.72492e-08)
(0.0013351 2.1266e-07 3.61502e-07)