/*--------------------------------*- C++ -*----------------------------------*\
| =========                 |                                                 |
| \\      /  F ield         | OpenFOAM: The Open Source CFD Toolbox           |
|  \\    /   O peration     | Version:  5.0                                   |
|   \\  /    A nd           | Web:      www.OpenFOAM.org                      |
|    \\/     M anipulation  |                                                 |
\*---------------------------------------------------------------------------*/
FoamFile
{
    version     2.0;
    format      ascii;
    class       surfaceVectorField;
    location    "1.7";
    object      Uf;
}
// * * * * * * * * * * * * * * * * * * * * * * * * * * * * * * * * * * * * * //

dimensions      [0 1 -1 0 0 0 0];

internalField   nonuniform List<vector> 
25159
(
(0.00216947 -0.00718078 -0.000211647)
(-0.000966482 -0.0131154 -9.1441e-05)
(-0.00451595 -0.00383386 0.000264671)
(0.00445272 0.000389376 -0.000349312)
(0.00277661 -0.010817 -0.00105376)
(0.00510484 -0.00308178 -0.00132321)
(0.00220664 -0.014739 -0.000301845)
(0.00173271 -0.013829 -0.000572858)
(0.00285797 -0.0133565 -0.000610484)
(0.00720157 -0.00475622 -7.7444e-05)
(0.00786251 -0.000794014 -0.000485084)
(0.00711285 -0.00880497 -0.000784577)
(0.00885725 0.00322879 -5.10513e-05)
(-0.00346316 -0.0227346 -0.00111825)
(0.0020694 0.00493268 -0.000198138)
(0.00863411 0.00821912 -0.00095715)
(0.00599597 0.0118835 -0.00157881)
(0.00296717 0.0143807 -0.000679159)
(0.00339579 -0.00355598 -0.000150152)
(-0.0166146 -0.0081073 -0.000359111)
(0.00204994 -0.000493459 -0.000417583)
(-0.00891334 0.00409735 -0.00235099)
(-0.00616648 0.00701709 -0.00065955)
(-0.00224997 -0.00182614 -2.11318e-05)
(0.00586126 -0.00657782 -6.51937e-05)
(-0.00898692 -0.0123839 0.000900491)
(0.0036945 -0.0132371 0.000664251)
(0.000550346 0.00296212 -0.000185265)
(0.000539266 0.001227 -2.01042e-05)
(0.00073288 0.00205561 8.07899e-06)
(0.00379841 0.00423899 -1.38637e-05)
(0.000361058 0.000108255 -6.83226e-08)
(0.000379927 0.000108639 1.66146e-07)
(0.000373285 6.54886e-05 1.20859e-06)
(0.00067113 0.000210991 2.13456e-05)
(0.000358457 8.1866e-05 2.24589e-06)
(0.000770551 0.000213457 -1.5083e-06)
(0.000694189 0.000144025 9.85044e-06)
(0.000757549 6.39768e-05 -7.49168e-07)
(0.000756666 4.21351e-05 -1.69696e-06)
(0.00101617 0.000102345 -1.07409e-06)
(0.000510628 8.40712e-05 -3.80129e-06)
(0.000519578 4.97733e-05 -3.04001e-06)
(0.00084957 0.000153957 -3.69018e-06)
(0.000883355 7.61056e-05 -3.27613e-06)
(0.000782031 3.93003e-05 6.85829e-08)
(0.000761938 2.98107e-05 -5.79275e-08)
(0.00102353 6.24782e-05 1.51574e-07)
(0.000795548 2.45224e-05 1.39574e-07)
(0.000785968 1.90773e-05 1.2569e-07)
(0.00105463 3.89857e-05 2.09743e-07)
(0.000802258 1.52538e-05 9.13869e-08)
(0.000796088 1.23764e-05 8.56209e-08)
(0.00106598 2.4429e-05 1.82449e-07)
(0.000806126 9.45189e-06 3.70195e-08)
(0.000802275 7.94845e-06 6.51014e-08)
(0.00107279 1.50525e-05 1.77997e-07)
(0.000808137 6.10738e-06 4.20662e-08)
(0.000805762 5.05214e-06 3.15428e-08)
(0.00107673 9.41017e-06 1.84981e-07)
(0.00080761 4.01974e-06 6.55743e-08)
(0.000806996 2.90423e-06 6.54975e-08)
(0.00107757 6.39741e-06 1.62981e-07)
(0.000807019 2.50715e-06 1.29613e-07)
(0.000806887 1.93282e-06 5.16206e-08)
(0.00107658 4.01372e-06 1.86432e-07)
(0.00080648 1.57368e-06 1.31802e-07)
(0.000806453 7.37932e-07 1.46293e-07)
(0.00107588 2.49156e-06 2.13142e-07)
(0.000805476 1.08469e-06 6.32131e-08)
(0.000805644 7.92182e-07 4.36839e-08)
(0.00107488 1.59001e-06 1.81115e-07)
(0.000803658 7.5845e-07 5.73289e-08)
(0.000804444 2.72994e-07 6.27734e-08)
(0.00107299 1.20433e-06 1.63588e-07)
(0.000802432 4.24742e-07 1.11808e-07)
(0.000803019 5.73611e-09 4.29202e-08)
(0.00107085 7.21428e-07 1.4737e-07)
(0.000801032 1.94545e-07 1.17553e-07)
(0.000801633 1.10554e-07 1.03494e-07)
(0.00106912 3.17543e-07 1.81312e-07)
(0.000799557 1.14957e-07 3.00601e-08)
(0.000800241 -9.42767e-10 7.23758e-08)
(0.0010673 1.50639e-07 1.82335e-07)
(0.000798074 7.21632e-08 -2.42836e-09)
(0.000798764 1.35078e-07 3.3277e-08)
(0.00106527 1.78705e-07 1.71451e-07)
(0.000796468 2.60018e-08 1.76455e-08)
(0.000797214 2.15401e-07 9.84757e-09)
(0.00106314 7.6862e-08 1.66262e-07)
(0.000795089 2.05001e-08 5.38279e-08)
(0.000795746 -2.04828e-07 5.64918e-08)
(0.00106119 5.08091e-08 1.78912e-07)
(0.000793636 4.20379e-08 5.94094e-08)
(0.000794317 3.49339e-08 6.04046e-08)
(0.00105935 6.68154e-08 1.9137e-07)
(0.000791831 4.01985e-08 4.82678e-08)
(0.000792724 -1.88115e-08 5.11434e-08)
(0.00105713 1.21786e-07 1.49174e-07)
(0.000790329 2.94499e-08 4.55998e-08)
(0.000791117 6.12101e-08 3.75843e-08)
(0.00105488 4.64849e-08 1.69889e-07)
(0.000788881 1.08548e-07 4.17065e-08)
(0.00078971 -5.91187e-08 4.79463e-08)
(0.00105311 5.26869e-08 1.77797e-07)
(0.000787358 -6.07545e-09 9.67316e-08)
(0.000788035 -2.46876e-07 4.82861e-08)
(0.00105099 2.23525e-07 1.2238e-07)
(0.000785945 -3.39975e-07 1.18927e-07)
(0.000786383 -8.22706e-09 1.12801e-07)
(0.00104891 -2.81064e-07 1.548e-07)
(0.00078406 -5.32672e-07 8.10722e-09)
(0.000784971 -7.06356e-07 -2.0765e-08)
(0.00104684 -7.15048e-07 3.63643e-07)
(0.000782871 -5.03383e-07 9.62326e-09)
(0.000783477 -6.15461e-07 -2.29422e-08)
(0.00104465 -7.80465e-07 3.23717e-07)
(0.000781277 -2.75516e-07 5.0735e-08)
(0.000782205 -2.33305e-07 1.03124e-07)
(0.00104283 -5.77405e-07 1.81566e-07)
(0.000780244 -2.97348e-08 2.96915e-08)
(0.000781041 1.66051e-07 7.58509e-08)
(0.00104125 -1.52257e-07 1.30691e-07)
(0.000778497 3.5078e-08 4.41742e-08)
(0.00077946 7.07403e-08 4.0122e-08)
(0.0010394 9.24779e-08 1.60406e-07)
(0.000777069 -2.65374e-08 4.51952e-08)
(0.00077781 8.25701e-09 4.17378e-08)
(0.0010372 4.50437e-08 1.73507e-07)
(0.000775292 5.97013e-08 3.94161e-08)
(0.000776407 2.35556e-07 4.30796e-08)
(0.00103505 -6.45482e-08 1.78096e-07)
(0.000773612 4.10353e-07 6.73776e-08)
(0.000774937 4.51476e-07 2.38001e-08)
(0.00103261 2.60284e-07 1.48285e-07)
(0.000773521 4.28661e-07 9.1493e-08)
(0.000773526 -3.15143e-06 5.10793e-08)
(0.0010315 8.43135e-07 2.40629e-07)
(0.000771541 1.46936e-07 5.79658e-08)
(0.000772094 4.27394e-07 2.51059e-07)
(0.00103024 3.45843e-07 1.79663e-07)
(0.000769988 3.993e-08 5.14214e-08)
(0.000770565 1.45826e-07 3.64604e-08)
(0.00102779 1.06606e-07 1.70343e-07)
(0.000768653 -2.96373e-07 8.04288e-08)
(0.000768986 5.41218e-09 6.14912e-08)
(0.00102575 1.04262e-08 1.61315e-07)
(0.000767849 -5.67957e-07 4.38513e-08)
(0.000767865 1.55862e-06 8.16632e-08)
(0.00102456 -7.71282e-07 1.58629e-07)
(0.000765502 -3.71574e-07 1.76368e-08)
(0.000766755 2.41946e-06 5.04837e-08)
(0.00102237 -6.83237e-07 7.89834e-08)
(0.000764121 -1.63905e-07 4.04447e-08)
(0.000765147 -2.09865e-07 4.59394e-08)
(0.00101982 -2.87801e-07 1.69434e-07)
(0.000762806 -5.56123e-08 5.39052e-08)
(0.000763625 2.46311e-07 4.88229e-08)
(0.00101808 -1.85693e-07 1.39937e-07)
(0.000761853 -5.43168e-08 5.16605e-08)
(0.0007623 -8.83556e-07 3.65242e-08)
(0.00101647 -1.53155e-08 1.85329e-07)
(0.000760303 -2.23271e-07 4.34625e-08)
(0.000760963 1.48001e-07 4.50803e-08)
(0.00101496 -1.98125e-07 1.7662e-07)
(0.000758597 -3.49626e-07 2.44319e-08)
(0.000759411 -2.81997e-07 -1.0357e-08)
(0.00101266 -4.51938e-07 2.11499e-07)
(0.000758084 9.27249e-07 5.6825e-08)
(0.00101048 -4.84749e-07 1.06632e-07)
(0.000705656 -0.0114804 -0.000342933)
(0.00257513 -0.00784185 -2.12314e-05)
(0.00442148 -0.0107971 -0.000372096)
(-0.0203667 -0.0115625 0.000358518)
(-0.0158854 -0.0095612 -0.000374102)
(-0.00104341 -0.00159348 0.00334925)
(0.00165256 0.00549287 0.0005068)
(0.00768545 -0.00767545 0.000542127)
(-0.0010796 0.000921327 0.000744594)
(0.00213656 0.0197953 0.00120889)
(-0.000744242 0.00808004 0.00298658)
(-0.0213401 0.00775688 -3.98962e-05)
(-0.00953285 0.000508484 0.00132979)
(0.000159657 -0.0186974 -0.000395676)
(0.000858783 -0.0151302 0.000134252)
(0.00512639 -0.014253 0.000759851)
(-0.00184191 -0.0148745 0.000479433)
(0.00391004 -0.00627068 0.000107512)
(0.00590915 -0.000711166 -1.139e-05)
(0.00406366 -0.0111095 0.000762012)
(0.00234041 -0.00683029 0.00220364)
(0.0189009 -0.00777577 -0.000579258)
(0.0185754 -0.00678902 0.000164437)
(0.00836983 -0.00107007 -0.000243681)
(0.0136996 -0.00641394 -0.00138456)
(0.00745903 -0.00870783 -0.000385303)
(-0.00538695 -0.00104997 -0.000142258)
(-0.0015052 -0.00376626 0.000364058)
(0.000982586 -0.00161696 2.25697e-05)
(-0.000422184 -0.00366021 -0.000148484)
(-0.00262779 0.000227885 -3.37083e-05)
(0.000318303 -4.69419e-05 8.77616e-06)
(0.000387798 2.62807e-05 -1.04706e-06)
(0.000395666 1.27885e-05 -2.24072e-06)
(0.000720141 5.374e-06 2.63136e-06)
(0.000330091 -5.6167e-05 2.13432e-05)
(0.000522901 -0.000116595 2.15793e-05)
(0.000600757 -8.25008e-05 5.43383e-05)
(0.000340733 2.93715e-05 3.09399e-06)
(0.000624503 8.58473e-05 1.35774e-05)
(0.00053011 5.823e-05 1.10764e-07)
(0.000288411 1.38474e-05 -1.20866e-06)
(0.000748099 1.12876e-05 -1.00626e-06)
(0.000748825 -2.41402e-05 -2.02447e-06)
(0.00100662 1.17139e-05 -1.08405e-06)
(0.000513471 1.75002e-05 -4.16549e-06)
(0.000502152 4.96785e-06 -3.61136e-06)
(0.000861362 3.36535e-05 -4.56131e-06)
(0.000849905 7.45221e-06 -3.85719e-06)
(0.000771581 1.0328e-05 -8.80736e-10)
(0.000760789 -8.31378e-07 -3.95154e-08)
(0.00101075 1.59783e-05 1.21801e-07)
(0.000787655 6.66758e-06 7.17495e-08)
(0.000781383 -3.18915e-06 7.28928e-08)
(0.00104258 9.72698e-06 1.8364e-07)
(0.000796955 4.55038e-06 5.9342e-08)
(0.000793435 -1.35659e-06 6.5765e-08)
(0.00105773 6.79478e-06 1.80004e-07)
(0.000802383 2.97873e-06 5.96356e-08)
(0.000800306 -9.41282e-07 6.02086e-08)
(0.00106718 4.50702e-06 1.80942e-07)
(0.00080523 1.75924e-06 5.4963e-08)
(0.000804235 -6.08136e-07 5.79757e-08)
(0.00107242 2.90094e-06 1.81817e-07)
(0.000806293 9.94951e-07 5.15483e-08)
(0.000806039 -4.93506e-07 5.47641e-08)
(0.00107483 1.45334e-06 1.80394e-07)
(0.000806422 7.07414e-07 6.82702e-08)
(0.000806527 -2.86892e-07 5.38573e-08)
(0.00107552 9.84112e-07 1.80426e-07)
(0.000805691 5.05384e-07 5.82079e-08)
(0.000806201 -4.62001e-08 7.11571e-08)
(0.00107504 7.4468e-07 1.56291e-07)
(0.000804737 2.91852e-07 4.3238e-08)
(0.000805377 -8.07575e-08 4.31519e-08)
(0.00107385 4.85544e-07 1.82286e-07)
(0.000803741 2.65791e-07 4.83712e-08)
(0.000804411 -7.53149e-07 5.71569e-08)
(0.00107256 2.07251e-07 1.96977e-07)
(0.000802285 2.66157e-07 3.45868e-08)
(0.000803019 -1.88125e-07 7.34561e-08)
(0.00107087 4.33129e-07 1.79915e-07)
(0.000800817 1.6748e-07 5.83261e-08)
(0.000801509 -1.02751e-07 3.45938e-08)
(0.00106891 2.42927e-07 1.82955e-07)
(0.000799436 1.03e-07 7.56053e-08)
(0.00080016 5.60784e-08 6.43907e-08)
(0.00106705 2.19269e-07 1.57146e-07)
(0.000797941 7.59533e-08 4.55604e-08)
(0.000798729 -1.47047e-08 5.57555e-08)
(0.00106511 7.9457e-08 1.81979e-07)
(0.00079647 7.8247e-08 4.8679e-08)
(0.000797216 3.09895e-07 3.93695e-08)
(0.00106307 1.52475e-07 1.63372e-07)
(0.000794948 -2.79824e-08 6.30673e-08)
(0.000795613 2.72335e-07 6.72685e-08)
(0.00106113 1.12699e-07 1.41587e-07)
(0.000793487 -2.00348e-07 5.21416e-08)
(0.000794101 -4.32129e-08 5.20409e-08)
(0.00105915 -1.22471e-07 1.75461e-07)
(0.00079196 -2.6694e-07 4.04643e-08)
(0.000792641 7.98148e-09 4.05435e-08)
(0.0010571 -3.47833e-07 1.74312e-07)
(0.000790476 -2.50762e-07 3.99276e-08)
(0.000791139 1.68782e-08 4.79288e-08)
(0.00105507 -3.10424e-07 1.75931e-07)
(0.000788932 -3.80635e-07 5.45258e-08)
(0.00078955 5.45963e-08 5.19113e-08)
(0.00105313 -3.47436e-07 1.70582e-07)
(0.000786939 -4.39596e-07 6.43347e-08)
(0.000787964 -6.00322e-07 3.3373e-08)
(0.00105074 -7.53621e-07 2.43385e-07)
(0.000785549 -3.3307e-07 -2.68492e-08)
(0.000786519 -3.13369e-08 4.84251e-08)
(0.00104832 -5.41009e-07 1.6723e-07)
(0.000784239 -2.14142e-07 -5.18137e-08)
(0.000785121 2.31212e-07 4.74514e-08)
(0.00104668 -4.20736e-07 9.26469e-08)
(0.000782831 1.01312e-07 7.05186e-08)
(0.000783871 3.93643e-07 4.1358e-08)
(0.00104491 -1.97204e-07 9.64935e-08)
(0.000781949 3.46495e-07 1.28248e-07)
(0.00078251 -2.45161e-06 6.03685e-08)
(0.00104333 4.78036e-07 2.79063e-07)
(0.000780443 2.09436e-07 8.62926e-08)
(0.000780868 -1.9376e-06 7.11195e-08)
(0.00104183 5.24273e-07 3.26914e-07)
(0.000778559 1.08737e-07 3.76851e-08)
(0.000779333 7.71092e-07 7.21629e-08)
(0.00103949 1.12107e-07 1.61219e-07)
(0.000777216 1.86898e-07 3.96217e-08)
(0.000777907 -3.70261e-08 4.31782e-08)
(0.00103726 2.09418e-07 1.66381e-07)
(0.000776061 3.08511e-07 2.74696e-08)
(0.000776558 -1.71511e-07 4.72285e-08)
(0.0010356 2.90179e-07 1.75757e-07)
(0.000774808 5.86855e-07 7.49337e-09)
(0.000775283 9.5511e-08 3.24616e-08)
(0.00103411 5.29874e-07 1.81103e-07)
(0.000772166 5.56791e-07 2.10584e-07)
(0.000773486 -9.54273e-07 1.4208e-08)
(0.00103146 1.01217e-06 1.22537e-07)
(0.000771096 2.16884e-07 2.2962e-07)
(0.000771668 1.93609e-07 2.43105e-07)
(0.00102888 4.84457e-07 1.56179e-07)
(0.000769594 3.32744e-08 4.65225e-08)
(0.000770334 3.50332e-07 5.68604e-08)
(0.00102724 1.23686e-07 1.63657e-07)
(0.000767963 -1.08135e-07 6.27194e-08)
(0.00076881 8.06725e-07 5.17341e-08)
(0.00102509 -6.07037e-08 1.32301e-07)
(0.000766958 -4.62236e-07 8.83052e-08)
(0.000767424 6.01563e-07 7.44302e-08)
(0.00102329 -2.85527e-07 2.03048e-07)
(0.000766486 -4.94705e-07 7.87877e-08)
(0.000766717 -3.55895e-09 1.21491e-07)
(0.00102249 -9.53656e-07 2.61317e-07)
(0.000764529 -1.51362e-07 5.43167e-08)
(0.000765578 2.63453e-07 5.9934e-08)
(0.00102078 -3.34706e-07 1.85998e-07)
(0.000763089 9.66442e-08 3.14456e-08)
(0.000763935 -6.30168e-08 7.15774e-08)
(0.00101848 -1.05163e-07 1.96086e-07)
(0.000761471 1.36183e-07 2.99414e-08)
(0.000762349 1.51738e-07 3.93544e-08)
(0.00101651 2.92799e-07 1.14585e-07)
(0.000760089 -5.81697e-08 -8.72235e-09)
(0.00076072 2.10287e-07 6.48222e-08)
(0.00101445 2.32278e-08 1.63962e-07)
(0.00075877 -1.76317e-07 2.20157e-08)
(0.000759266 -6.41217e-08 -4.51623e-08)
(0.00101259 -2.21985e-07 1.4698e-07)
(0.000758303 -1.7404e-07 1.1822e-07)
(0.00101119 -2.82445e-07 2.32758e-07)
(0.00416561 0.00266899 -0.000114308)
(-0.0145835 -0.00870226 0.000584452)
(-0.0034591 -0.00680622 -0.000375222)
(0.00482309 -0.000239949 0.000324314)
(-0.00340506 -0.00407959 0.000253804)
(0.00239044 -0.00908828 -0.00019839)
(-0.0152107 -0.00561547 -0.000872297)
(-0.0127431 -0.0126983 0.00180209)
(-0.0107034 -0.00393988 -0.00208027)
(0.00031426 -0.0125229 4.85707e-05)
(-0.00300913 -0.0124452 0.000433119)
(0.000619727 -0.0115059 0.000171142)
(-0.00227056 -0.0111193 0.00146887)
(-0.00915688 0.00991594 -0.00121777)
(0.00547097 0.0152533 0.000874745)
(0.00704134 0.00806847 0.000243669)
(0.00383672 0.00523574 1.46479e-05)
(-0.00169577 -0.00841658 0.000217037)
(-0.0143259 0.0128163 -0.00117401)
(-0.0243041 0.045915 0.000863609)
(-0.0118517 0.0133344 -0.00396715)
(-0.0103893 -0.00496293 -0.00253585)
(0.0055886 -0.0263179 0.000421887)
(-0.00370492 -0.00931651 6.73432e-05)
(-0.0197975 -0.00118547 -0.000647941)
(0.00543489 0.00272124 -0.00207148)
(0.00366937 0.00264853 -0.000831569)
(0.00251229 0.0102645 -0.000123559)
(0.00913227 0.00945874 0.000127362)
(0.00331369 0.0193011 0.000220656)
(0.00553345 0.0193016 -0.00117283)
(0.00240226 0.0120622 -1.0013e-05)
(0.00162575 -0.00153472 -0.000131843)
(-0.00119704 0.000810452 0.000104384)
(0.00278704 0.000974837 -0.000145768)
(-0.000737552 0.0035109 -0.000117399)
(-0.00215972 0.00310377 -0.00067528)
(0.00100108 -6.36985e-05 2.82781e-06)
(0.00035236 -8.19127e-05 3.01925e-05)
(0.000360388 -0.000240202 3.7097e-05)
(0.000530398 -0.000161986 7.24628e-05)
(0.000268453 -9.69083e-05 1.86063e-05)
(0.000756888 -3.48612e-05 -1.05838e-06)
(0.000523637 -5.02413e-05 -1.62863e-06)
(0.000996552 -7.98186e-05 -1.40799e-06)
(0.000518347 -2.13132e-05 -4.56611e-06)
(0.000510352 -6.75566e-05 -1.13903e-06)
(0.000873577 -2.16368e-05 -4.15318e-06)
(0.00089395 -0.000126947 3.9071e-06)
(0.000512138 -5.98768e-05 -4.05076e-06)
(0.000891715 -8.86953e-05 -1.27717e-06)
(0.000864976 -0.000101189 -5.11497e-06)
(0.000773155 -1.19653e-05 3.42214e-08)
(0.000796277 -2.30928e-05 -5.87716e-07)
(0.00102122 -1.32458e-05 1.65602e-07)
(0.000788884 -1.10796e-05 6.69107e-08)
(0.000782585 -2.48584e-05 -1.19229e-07)
(0.00104314 -1.90359e-05 1.72353e-07)
(0.000797646 -6.71461e-06 6.66334e-08)
(0.000798944 -1.44196e-05 1.22612e-07)
(0.00105945 -1.08293e-05 1.80559e-07)
(0.000802778 -4.44492e-06 5.85494e-08)
(0.000803177 -9.43874e-06 5.29758e-08)
(0.00106792 -7.35477e-06 1.79699e-07)
(0.00080547 -2.85623e-06 5.77778e-08)
(0.000806243 -6.04802e-06 6.21696e-08)
(0.00107291 -4.69948e-06 1.80371e-07)
(0.000806485 -1.83379e-06 5.70733e-08)
(0.000807331 -3.83788e-06 5.71711e-08)
(0.00107517 -3.05651e-06 1.81295e-07)
(0.000806488 -1.18546e-06 5.67386e-08)
(0.000807347 -2.35923e-06 5.39439e-08)
(0.00107569 -1.93041e-06 1.81293e-07)
(0.00080594 -7.74065e-07 5.61101e-08)
(0.000806721 -1.48777e-06 5.40857e-08)
(0.00107526 -1.30103e-06 1.85911e-07)
(0.000805087 -4.76199e-07 5.70662e-08)
(0.000805754 -1.03121e-06 5.18054e-08)
(0.00107421 -8.12702e-07 1.78823e-07)
(0.000803862 -4.38129e-07 8.22366e-08)
(0.000804462 -1.34436e-06 4.51434e-08)
(0.00107292 -4.97626e-07 1.86618e-07)
(0.00080212 -3.9352e-07 7.34757e-08)
(0.000803077 2.16716e-07 7.02545e-08)
(0.0010709 -7.06856e-07 1.63215e-07)
(0.000800858 -1.95494e-07 4.06489e-08)
(0.000801759 -4.74017e-07 3.7399e-08)
(0.00106885 -3.67412e-07 1.75922e-07)
(0.000799471 -7.40565e-08 4.45437e-08)
(0.000800313 -4.03816e-07 5.19786e-08)
(0.00106709 -1.89969e-07 1.93497e-07)
(0.000798046 -1.35921e-08 4.95698e-08)
(0.000798805 -2.04478e-07 5.01854e-08)
(0.00106518 -4.80825e-08 1.78661e-07)
(0.000796365 2.7921e-08 5.79501e-08)
(0.000797268 2.75409e-07 3.14445e-08)
(0.00106318 -1.16432e-10 1.90749e-07)
(0.000794699 5.93741e-08 5.6247e-08)
(0.000795652 1.09478e-07 6.67323e-08)
(0.00106085 9.07805e-08 1.98706e-07)
(0.000793272 4.24333e-08 4.04464e-08)
(0.00079408 -1.73338e-07 3.68914e-08)
(0.00105878 7.09426e-08 1.76128e-07)
(0.000791827 -1.29592e-08 4.80057e-08)
(0.000792572 -1.3485e-07 3.242e-08)
(0.00105689 3.90564e-08 1.79068e-07)
(0.000790243 -5.75824e-08 5.99113e-08)
(0.000791083 4.88989e-08 6.12334e-08)
(0.00105489 -4.84989e-08 1.793e-07)
(0.000788604 -8.95063e-08 3.07643e-08)
(0.00078951 -5.37424e-08 5.50474e-08)
(0.00105256 -6.47949e-08 1.94507e-07)
(0.000787426 1.24312e-07 1.74586e-08)
(0.00078823 4.24578e-07 2.11265e-08)
(0.00105075 -1.3059e-07 7.45136e-08)
(0.000786198 4.06339e-07 1.22726e-07)
(0.00078687 6.16844e-07 3.24148e-08)
(0.00104933 5.08922e-07 1.05641e-07)
(0.000784621 4.64839e-07 1.40625e-07)
(0.000785192 3.38475e-07 1.39115e-07)
(0.00104727 6.66176e-07 1.74995e-07)
(0.000783667 4.70117e-07 3.12019e-08)
(0.000783875 4.84207e-07 2.60631e-08)
(0.00104577 6.779e-07 1.214e-07)
(0.000781392 3.6124e-07 3.23658e-09)
(0.000782372 -1.90214e-09 1.90891e-08)
(0.00104373 6.17597e-07 7.1237e-08)
(0.000779756 1.39014e-07 5.69896e-08)
(0.000780589 8.21127e-08 2.99512e-08)
(0.00104079 3.65603e-07 4.51288e-08)
(0.000778646 6.27346e-08 7.76651e-08)
(0.000779237 2.02498e-08 7.46537e-08)
(0.001039 3.04921e-08 1.95702e-07)
(0.000777229 9.05958e-08 5.07838e-08)
(0.000777942 -1.11299e-07 4.67858e-08)
(0.00103742 1.34782e-07 1.75027e-07)
(0.000775764 1.71537e-08 5.22251e-08)
(0.000776466 3.70625e-08 4.30548e-08)
(0.00103545 1.00546e-07 1.59437e-07)
(0.00077429 -1.61988e-07 3.91819e-08)
(0.000775059 -1.70701e-07 4.9311e-08)
(0.0010335 -3.57386e-08 1.9443e-07)
(0.000772597 -1.84569e-07 4.66587e-08)
(0.000773459 -3.05923e-07 2.039e-08)
(0.00103144 -3.42301e-07 1.48561e-07)
(0.000771013 -2.51417e-08 7.0403e-08)
(0.000771868 -3.5516e-07 5.36101e-08)
(0.00102913 -1.18262e-07 2.25035e-07)
(0.000769627 1.0584e-07 6.20736e-08)
(0.000770498 1.77259e-07 6.4637e-08)
(0.00102711 4.2658e-08 1.80417e-07)
(0.000768201 3.58274e-07 6.34379e-08)
(0.000769124 1.27237e-07 4.32324e-08)
(0.00102524 2.39541e-07 2.20718e-07)
(0.000766805 5.92795e-07 1.07602e-07)
(0.000767715 4.0572e-07 7.932e-08)
(0.00102345 7.47035e-07 1.83418e-07)
(0.000766325 4.22758e-07 1.02656e-07)
(0.000766502 -1.18323e-06 1.95198e-08)
(0.00102231 8.59735e-07 1.71825e-07)
(0.000764853 1.88107e-07 7.71912e-08)
(0.000765283 3.8891e-07 -3.84345e-09)
(0.00102088 3.14174e-07 1.67292e-07)
(0.000763264 1.65039e-07 7.9496e-08)
(0.000763905 3.50608e-08 6.78521e-08)
(0.00101887 2.80504e-07 1.80066e-07)
(0.000761485 2.7975e-07 7.42275e-08)
(0.000762491 1.24863e-07 5.2851e-08)
(0.00101664 2.31317e-07 2.06589e-07)
(0.00075994 2.98872e-07 2.84157e-08)
(0.000760743 4.42193e-07 5.32167e-08)
(0.00101431 5.33016e-07 1.6646e-07)
(0.000758553 1.67492e-07 5.09926e-08)
(0.0007591 2.30614e-07 1.15223e-08)
(0.00101229 2.51635e-07 1.47541e-07)
(0.000758093 -1.32065e-06 1.36505e-07)
(0.00101111 1.86909e-07 2.09899e-07)
(-0.0249909 -0.00173391 -0.000110134)
(-0.00667515 -0.00497212 0.00055887)
(-0.0182132 -0.0105401 0.00187183)
(0.00609746 0.00214833 0.000129932)
(0.00113899 -0.00442901 -1.98513e-05)
(0.00509081 0.00201016 -0.000551329)
(0.00550622 0.00418151 0.00024262)
(-0.00739999 0.0014824 -0.00065511)
(0.01496 -0.00609949 -0.000781837)
(0.0041362 -0.0116093 0.000200547)
(0.00781566 -0.00259397 -0.00147384)
(0.0036756 -0.019644 -0.000246724)
(0.00378078 -0.0021642 -0.000357483)
(0.00766243 -8.54539e-05 0.000440414)
(0.00413045 2.64684e-06 0.000464614)
(0.00832768 0.00264125 0.000322586)
(0.00663307 -0.00140294 0.00051771)
(0.00295229 -4.90151e-06 0.00104821)
(0.00284503 0.00574511 0.00109527)
(0.0195978 -0.00312029 -0.000248477)
(0.00321364 0.0108552 -0.00013586)
(0.0115976 0.0030384 -0.000821899)
(0.00551111 0.00315344 -0.000610007)
(0.00534207 -0.00111466 0.000397304)
(0.00692855 0.000797478 9.52066e-05)
(0.00558687 0.00191491 0.000699554)
(0.00560462 0.0013742 0.000186613)
(0.00483837 0.00359628 -4.63654e-05)
(0.00622795 0.000794068 0.000158397)
(0.00610303 0.00414894 -6.08715e-05)
(-0.00103632 0.00439126 0.000702772)
(-0.00188395 -0.000701135 0.000159187)
(-0.00171714 -0.000423426 0.00062863)
(-0.00194776 0.000442417 0.00112532)
(0.00393846 -0.00522099 -0.000154822)
(0.00193202 -0.00209108 -0.00021813)
(0.00405992 0.00410962 -0.00012621)
(0.0054954 -0.000203684 -0.000201142)
(0.0079957 -0.00389069 -0.000516775)
(0.000356405 0.000102655 1.83969e-05)
(0.00129364 0.000148748 -7.64455e-06)
(0.00129739 0.000479841 -4.19941e-05)
(0.00159118 0.000479752 -0.000114614)
(0.00145107 0.000101853 1.35158e-05)
(0.000293656 -4.36823e-05 -2.77435e-06)
(0.000442436 -4.55162e-05 -3.34573e-06)
(0.000415255 -5.58372e-05 -4.49969e-07)
(0.000688909 -7.46949e-05 -1.75665e-06)
(0.000291598 -2.47597e-05 -2.04343e-06)
(0.000539569 -8.72758e-05 -3.45301e-06)
(0.000542999 -3.8773e-05 -9.6076e-07)
(0.000786398 -3.9618e-05 -7.4132e-07)
(0.000854268 -6.32796e-05 -1.29851e-06)
(0.00110501 -5.93087e-05 -9.15355e-07)
(0.000554085 -4.52273e-05 -3.73777e-06)
(0.000566195 -4.43297e-05 -4.29323e-06)
(0.000911782 -8.46693e-05 -4.80222e-06)
(0.000939199 -8.21582e-05 -5.63602e-06)
(0.000798398 -2.74943e-05 -6.36063e-08)
(0.000798022 -4.05455e-05 -3.75216e-07)
(0.00104586 -4.57753e-05 7.99842e-08)
(0.000804439 -1.67e-05 1.08977e-07)
(0.000812542 -2.44352e-05 1.64406e-07)
(0.00107248 -2.71511e-05 2.05236e-07)
(0.000807302 -1.06308e-05 5.6593e-08)
(0.000810828 -1.50814e-05 6.58667e-08)
(0.00107493 -1.71523e-05 1.78939e-07)
(0.000808421 -6.72679e-06 6.15645e-08)
(0.000811163 -9.57645e-06 1.94063e-07)
(0.00107785 -1.10426e-05 1.84628e-07)
(0.000808411 -4.0681e-06 5.40426e-08)
(0.00081068 -5.89765e-06 5.70537e-08)
(0.00107833 -6.79575e-06 1.81419e-07)
(0.000807686 -2.42211e-06 5.12909e-08)
(0.00080942 -3.5067e-06 4.61446e-08)
(0.00107774 -4.00422e-06 1.80563e-07)
(0.000806589 -1.54603e-06 4.97817e-08)
(0.000807825 -2.15457e-06 2.06075e-08)
(0.00107645 -2.43319e-06 1.79983e-07)
(0.000805261 -1.05205e-06 3.98848e-08)
(0.000806377 -1.39013e-06 5.00247e-08)
(0.00107487 -1.66318e-06 1.78936e-07)
(0.000803608 -7.73007e-07 3.31532e-08)
(0.000804814 -1.00365e-06 3.99808e-08)
(0.0010727 -1.08821e-06 1.59068e-07)
(0.000802714 -6.77778e-07 3.41883e-08)
(0.000803199 -7.84513e-07 5.52364e-08)
(0.00107104 -9.27455e-07 1.87062e-07)
(0.000801271 -5.02646e-07 4.87241e-08)
(0.00080198 -6.86824e-07 7.67374e-08)
(0.00106956 -8.55217e-07 1.80599e-07)
(0.000799634 -2.92578e-07 5.7621e-08)
(0.000800577 -3.97848e-07 6.59667e-08)
(0.00106745 -4.8769e-07 1.82855e-07)
(0.000798032 -2.47701e-07 3.20661e-08)
(0.000798863 -1.70063e-07 3.57143e-08)
(0.00106534 -3.24968e-07 1.7842e-07)
(0.000796553 -1.98701e-07 4.02154e-08)
(0.00079733 -2.22114e-07 1.53029e-07)
(0.00106324 -3.58786e-07 2.0538e-07)
(0.000795043 -4.87824e-08 4.73862e-08)
(0.000795841 -1.39672e-08 8.42136e-08)
(0.00106122 -1.92305e-07 1.82361e-07)
(0.000793341 9.90791e-08 2.88664e-08)
(0.000794265 -3.01858e-08 4.68558e-08)
(0.00105908 3.22413e-08 1.81128e-07)
(0.000791821 2.16646e-07 4.56385e-08)
(0.000792718 -9.29024e-08 4.85026e-08)
(0.00105695 2.08444e-07 1.72677e-07)
(0.000790393 3.51581e-07 5.63714e-08)
(0.00079125 1.55127e-09 6.43004e-08)
(0.00105494 3.66141e-07 1.71211e-07)
(0.00078902 5.78673e-07 4.54203e-08)
(0.000789791 5.82367e-07 4.16614e-08)
(0.00105302 6.00515e-07 1.18772e-07)
(0.000787838 6.39831e-07 3.6079e-08)
(0.000788303 8.34004e-07 1.32453e-07)
(0.00105146 1.04713e-06 1.18278e-07)
(0.000785788 4.46642e-07 4.87705e-08)
(0.000786625 3.95176e-07 6.25046e-08)
(0.00104931 8.11801e-07 2.39586e-07)
(0.000784353 4.07507e-07 2.45889e-08)
(0.00078514 3.39806e-07 7.36226e-08)
(0.00104688 5.41409e-07 1.69916e-07)
(0.000782811 2.26474e-07 1.39526e-08)
(0.000783646 2.924e-07 2.48637e-09)
(0.00104484 7.12821e-07 1.93454e-07)
(0.000781403 -1.93471e-08 4.58004e-08)
(0.000782063 -8.68315e-08 3.93135e-08)
(0.00104293 2.75871e-08 1.74213e-07)
(0.000779986 8.13372e-08 4.76014e-08)
(0.000780714 3.0985e-08 4.8536e-08)
(0.00104109 -1.36465e-08 1.72948e-07)
(0.000778668 1.16252e-07 4.37831e-08)
(0.00077928 5.07595e-08 4.88108e-08)
(0.0010392 2.34289e-07 1.58575e-07)
(0.000777105 1.51259e-08 3.9058e-08)
(0.000777815 2.77375e-08 4.3456e-08)
(0.00103734 7.21649e-08 1.72863e-07)
(0.000775787 -7.02707e-08 4.01387e-08)
(0.000776359 -1.01303e-07 3.31934e-08)
(0.00103539 -2.98727e-08 1.71093e-07)
(0.000774299 -1.90025e-07 3.0528e-08)
(0.00077491 9.10328e-08 4.68926e-08)
(0.00103356 -1.5663e-07 1.57836e-07)
(0.000772596 -2.40999e-07 2.73312e-08)
(0.000773396 -2.63163e-07 3.03179e-08)
(0.00103136 -3.75861e-07 1.92949e-07)
(0.0007714 -1.11914e-07 4.78407e-08)
(0.00077203 -1.99506e-07 -3.49467e-08)
(0.00102937 -3.30561e-07 1.39462e-07)
(0.000770043 5.41349e-08 4.58024e-08)
(0.000770706 7.76892e-08 6.01018e-08)
(0.00102769 -6.15783e-09 1.72594e-07)
(0.000768598 2.20223e-07 5.91035e-08)
(0.000769331 1.75215e-07 2.13917e-07)
(0.00102597 1.92089e-07 1.6997e-07)
(0.000767292 4.77943e-07 -8.74346e-09)
(0.000768035 4.37797e-07 4.67545e-08)
(0.00102406 4.78945e-07 1.58726e-07)
(0.000765516 4.41957e-07 -8.69728e-08)
(0.000766454 -9.77585e-07 -1.94596e-08)
(0.00102194 8.25575e-07 1.88893e-07)
(0.000764401 1.96872e-07 -1.32045e-08)
(0.000764975 1.93444e-07 -1.48588e-08)
(0.00102005 3.28256e-07 1.58087e-07)
(0.000763094 1.33698e-07 4.12117e-08)
(0.000763826 9.06137e-08 4.54758e-08)
(0.00101837 1.80485e-07 1.57516e-07)
(0.000761935 2.4231e-07 3.18401e-08)
(0.000762627 -9.57376e-08 3.35137e-09)
(0.00101682 1.57722e-07 1.64249e-07)
(0.00075969 2.94397e-07 3.6336e-08)
(0.000760807 1.5057e-06 3.30808e-08)
(0.00101448 4.38346e-07 1.69582e-07)
(0.000758552 2.60172e-07 9.69969e-08)
(0.000759054 -2.96072e-08 5.36186e-08)
(0.00101215 3.10503e-07 1.65431e-07)
(0.000757769 -1.28261e-06 9.98674e-08)
(0.00101064 3.76704e-07 1.84525e-07)
(-0.00209165 -0.0089504 0.000274909)
(-0.00573062 0.00249115 -0.00031973)
(-0.00158349 -0.00679074 0.000854056)
(-0.00638105 -0.00653958 0.000371388)
(0.0033895 0.000825737 0.000377365)
(-0.00525994 0.000278294 0.000125778)
(-0.00111501 -0.00517664 3.68739e-05)
(0.000764607 0.00742279 -0.000508987)
(-0.00537438 -0.00425967 0.00217233)
(0.0012063 0.00966874 0.00749328)
(-0.0023922 0.00751392 0.00334344)
(0.000403051 0.00606325 -0.0153454)
(-0.00330304 0.00270125 -0.00134407)
(-0.0043123 -0.0106297 -0.000971929)
(0.00257244 0.00264613 -0.00147281)
(-0.00676048 0.00313815 0.0240849)
(-0.0135402 0.00220677 -0.0219778)
(-0.00806421 -0.00654367 -0.00969226)
(-0.0420613 -0.00787698 0.00171424)
(-0.00183651 -0.00134966 -0.0019608)
(0.0145188 0.00541389 -0.00281597)
(0.019056 0.00307282 -0.000167339)
(0.00103913 0.00854488 -0.00136856)
(0.00308442 -0.0010761 0.000553106)
(-0.00194007 0.00144668 0.000223777)
(-0.00353483 -0.00218679 -0.000167557)
(-0.000858734 -0.000920324 0.000568133)
(0.000828874 -0.00965985 0.000111557)
(0.00445242 -0.00778876 1.54693e-05)
(-0.00113856 -0.00751967 -0.000315974)
(0.00208242 -0.007387 -0.000398031)
(0.00142788 -0.00463527 -0.000311505)
(-0.00274466 -0.00557315 -0.000143461)
(-0.00900362 -0.00585925 -5.02264e-05)
(-4.97286e-05 -0.00399793 -0.000182082)
(-0.00273061 -0.00575478 -0.000272139)
(-0.00646336 -0.0101148 -0.000741514)
(0.000335463 -0.000146695 6.15595e-05)
(0.000735699 -0.000381518 4.28567e-05)
(0.000861992 -0.00033347 0.000111484)
(0.000806806 -0.000489929 -3.84065e-05)
(0.000752833 -0.000266624 5.65421e-05)
(0.000320475 -5.70356e-05 -1.15112e-06)
(0.000481578 -7.01964e-05 -3.37811e-06)
(0.000449667 -8.40877e-05 -8.94862e-07)
(0.000725156 -0.000140639 -8.84643e-07)
(0.000321839 -5.62386e-05 -6.69561e-07)
(0.000604875 -0.000102887 4.07136e-06)
(0.000612431 -0.000100737 5.15637e-06)
(0.000426509 -7.66264e-05 -5.6154e-07)
(0.000825122 -5.51685e-05 -9.32709e-07)
(0.000901061 -5.9681e-05 -1.59205e-06)
(0.00117543 -9.04424e-05 -1.12668e-06)
(0.000602875 -5.94378e-05 -3.68055e-06)
(0.000618008 -5.63057e-05 -4.65326e-06)
(0.000998807 -0.000106674 -4.62171e-06)
(0.00103652 -9.95551e-05 -6.0109e-06)
(0.000820908 -3.36976e-05 -1.47381e-07)
(0.000825087 -3.59378e-05 -4.35218e-07)
(0.00108412 -5.53326e-05 7.82693e-08)
(0.000817839 -2.06737e-05 1.21327e-07)
(0.000828941 -2.30064e-05 1.50397e-07)
(0.00109551 -3.35857e-05 2.01804e-07)
(0.000814906 -1.27275e-05 2.03295e-07)
(0.000820833 -1.36409e-05 5.78393e-08)
(0.00108823 -2.09048e-05 1.90209e-07)
(0.000813645 -7.86889e-06 1.89597e-07)
(0.000817281 -1.05993e-05 1.97732e-07)
(0.00108597 -1.26001e-05 2.17083e-07)
(0.000811879 -5.14888e-06 4.91592e-08)