/*--------------------------------*- C++ -*----------------------------------*\
| =========                 |                                                 |
| \\      /  F ield         | OpenFOAM: The Open Source CFD Toolbox           |
|  \\    /   O peration     | Version:  5.0                                   |
|   \\  /    A nd           | Web:      www.OpenFOAM.org                      |
|    \\/     M anipulation  |                                                 |
\*---------------------------------------------------------------------------*/
FoamFile
{
    version     2.0;
    format      ascii;
    class       surfaceVectorField;
    location    "1.7";
    object      Uf_0;
}
// * * * * * * * * * * * * * * * * * * * * * * * * * * * * * * * * * * * * * //

dimensions      [0 1 -1 0 0 0 0];

internalField   nonuniform List<vector> 
25159
(
(0.0016225 -0.00649094 -0.000394282)
(-0.00188247 -0.0123815 7.36488e-05)
(-0.00493634 -0.00349672 0.000274359)
(0.00401286 0.00035613 -0.000280336)
(0.000488758 -0.0107759 -0.00132829)
(0.00399301 -0.0035707 -0.00121135)
(-0.00188247 -0.0123815 7.36488e-05)
(-0.00188247 -0.0123815 7.36488e-05)
(-0.00188247 -0.0123815 7.36488e-05)
(0.0109238 -0.00439962 -2.12067e-05)
(0.0086824 0.00151271 -0.000564155)
(0.00775075 -0.00874637 -0.0013499)
(0.00806843 0.00353717 -0.00012683)
(-0.00329061 -0.0224982 -0.00123754)
(-0.000118632 0.00374136 -0.000229162)
(0.00689181 0.00897792 -0.00112642)
(0.00360998 0.0118676 -0.00188381)
(0.00104802 0.0132352 -0.000763286)
(0.00161356 -0.0034325 1.1843e-06)
(-0.0166119 -0.00860864 -0.000451471)
(0.000517651 0.0006176 -0.000455156)
(-0.00993124 0.00902841 -0.00216586)
(-0.00643389 0.00955827 -0.000739637)
(-0.00303141 -0.00225551 -9.18805e-05)
(0.00545601 -0.0070737 -0.000106288)
(-0.0103246 -0.0135913 0.00083154)
(0.00348909 -0.0149342 0.000513236)
(0.00106581 0.00275882 -0.000186083)
(0.000620169 0.00105228 -3.17056e-07)
(0.00107496 0.00174471 3.679e-05)
(0.00470096 0.00406824 3.62607e-05)
(0.000363532 6.72795e-05 -7.67255e-08)
(0.000387309 6.6063e-05 -2.93576e-08)
(0.000386725 2.15913e-05 9.42129e-07)
(0.000684904 0.000134752 2.04394e-05)
(0.000362645 4.26673e-05 1.96085e-06)
(0.000772263 0.000132445 -2.08712e-06)
(0.000698695 6.83635e-05 8.87071e-06)
(0.000763702 3.73774e-05 -8.03665e-07)
(0.00077418 1.45748e-05 -1.77916e-06)
(0.00102766 6.06875e-05 -1.14362e-06)
(0.000516411 4.84584e-05 -3.84037e-06)
(0.000531865 1.88775e-05 -3.14554e-06)
(0.000861404 9.0923e-05 -3.76141e-06)
(0.000907296 2.42754e-05 -3.33167e-06)
(0.000785043 2.3934e-05 4.68126e-08)
(0.000771645 1.30989e-05 -8.42139e-08)
(0.0010287 3.85968e-05 1.4753e-07)
(0.000797468 1.54887e-05 1.36872e-07)
(0.000791692 8.8825e-06 1.12452e-07)
(0.00105749 2.50136e-05 2.06777e-07)
(0.000803912 9.87726e-06 1.00718e-07)
(0.000799892 6.11697e-06 8.39089e-08)
(0.00106806 1.61252e-05 1.81122e-07)
(0.00080774 6.2006e-06 4.2922e-08)
(0.000805173 4.09119e-06 6.93315e-08)
(0.00107474 1.00763e-05 1.77778e-07)
(0.000809725 4.05815e-06 3.05228e-08)
(0.000808157 2.68107e-06 2.96393e-08)
(0.00107861 6.35133e-06 1.84e-07)
(0.000809525 2.7234e-06 5.58969e-08)
(0.000809225 1.49459e-06 5.49025e-08)
(0.00107964 4.39862e-06 1.8826e-07)
(0.000808922 1.74432e-06 6.66292e-08)
(0.000809074 1.01502e-06 5.29607e-08)
(0.00107888 2.80884e-06 1.86155e-07)
(0.000808414 1.06571e-06 6.83313e-08)
(0.000808559 1.62339e-07 5.32206e-08)
(0.00107818 1.79869e-06 2.17493e-07)
(0.000807276 5.87103e-07 7.10345e-08)
(0.000807669 4.50738e-07 -1.93723e-08)
(0.00107708 1.01835e-06 1.80052e-07)
(0.000806051 1.84283e-07 9.20634e-08)
(0.000806495 1.47991e-07 8.06497e-08)
(0.00107551 5.59507e-07 1.79355e-07)
(0.000804105 -1.48117e-07 9.61897e-08)
(0.000805095 -6.26327e-07 7.18258e-08)
(0.00107327 1.63682e-10 2.59089e-07)
(0.000803126 -2.51061e-07 7.0126e-08)
(0.000803753 2.12488e-07 6.19557e-08)
(0.00107131 -3.01103e-07 2.21612e-07)
(0.00080197 -1.4488e-07 6.82229e-08)
(0.000802498 2.88639e-07 4.57649e-08)
(0.00106998 -2.72276e-07 1.68586e-07)
(0.000800222 -3.48653e-08 7.22511e-08)
(0.000800968 -3.48842e-07 6.9951e-08)
(0.00106798 -9.24294e-09 2.16051e-07)
(0.000798521 -1.408e-08 5.05464e-08)
(0.000799295 -9.08506e-08 4.15305e-08)
(0.00106562 6.73734e-09 1.95702e-07)
(0.000797062 -1.56315e-08 5.37159e-08)
(0.000797755 -1.85917e-07 3.48392e-08)
(0.00106357 1.83463e-08 1.80826e-07)
(0.000795539 -2.89112e-08 5.96864e-08)
(0.000796269 4.47891e-08 6.01771e-08)
(0.00106162 1.10387e-08 1.69349e-07)
(0.000794009 -2.90185e-08 5.39051e-08)
(0.000794746 5.78363e-08 5.33467e-08)
(0.00105953 1.50833e-08 1.8991e-07)
(0.000792498 -2.04167e-08 4.97619e-08)
(0.000793204 8.55577e-11 4.31751e-08)
(0.00105744 -2.48378e-09 1.70488e-07)
(0.000791279 7.57831e-08 4.43576e-08)
(0.00079185 -2.45634e-07 5.00395e-08)
(0.00105583 -1.18839e-08 1.78325e-07)
(0.000788741 2.61296e-09 5.50404e-08)
(0.000790007 9.97095e-07 5.0177e-08)
(0.00105321 2.11853e-07 2.47826e-07)
(0.000787513 -4.07326e-07 5.62072e-09)
(0.000787977 -3.36232e-07 8.08172e-08)
(0.00105058 -2.51022e-07 2.03522e-07)
(0.000786017 -6.1469e-07 -2.59288e-08)
(0.000786686 2.10795e-06 4.02206e-08)
(0.00104893 -8.93115e-07 -1.87568e-08)
(0.000784249 -5.23285e-07 4.67462e-08)
(0.000785313 1.1843e-06 3.18445e-08)
(0.0010466 -7.80203e-07 8.65764e-08)
(0.000783274 -3.73568e-07 7.27844e-08)
(0.000783935 1.03157e-07 1.39719e-07)
(0.00104477 -6.19048e-07 1.67281e-07)
(0.000781985 -1.77727e-07 5.36237e-08)
(0.00078277 5.92187e-08 1.32761e-07)
(0.00104344 -3.283e-07 1.20546e-07)
(0.000780315 -5.54619e-08 5.17805e-08)
(0.000781241 5.66643e-08 5.01398e-08)
(0.0010415 -7.05937e-08 1.76314e-07)
(0.00077879 -7.7401e-09 6.7921e-08)
(0.0007796 3.57001e-08 4.6941e-08)
(0.00103927 -1.48775e-10 1.7417e-07)
(0.000777262 8.4093e-08 5.42282e-08)
(0.00077812 1.80373e-07 6.16295e-08)
(0.00103714 3.17237e-08 1.65836e-07)
(0.000775795 2.51951e-07 1.16836e-08)
(0.000776623 1.72775e-07 4.26146e-08)
(0.00103506 2.28494e-07 1.65242e-07)
(0.000774146 3.97839e-07 3.16372e-08)
(0.000775099 3.33909e-07 1.73855e-08)
(0.00103308 5.09918e-07 1.84571e-07)
(0.000773305 2.67987e-07 6.1891e-08)
(0.000773666 -1.06739e-06 3.38169e-08)
(0.00103155 5.85248e-07 1.93351e-07)
(0.000771715 4.79131e-08 6.42305e-08)
(0.000772259 1.70875e-07 5.70144e-08)
(0.00102985 1.24435e-07 1.74104e-07)
(0.000770153 -1.43246e-07 8.3247e-08)
(0.000770684 -1.6108e-08 7.58908e-08)
(0.00102761 8.7955e-09 1.70828e-07)
(0.000768725 -3.43404e-07 1.68502e-07)
(0.000769317 -3.81242e-07 5.83957e-08)
(0.00102588 -4.18883e-07 1.78897e-07)
(0.000767534 -3.06812e-07 1.42309e-07)
(0.000768093 -2.89899e-07 1.69326e-07)
(0.00102401 -5.17761e-07 1.86739e-07)
(0.00076572 -1.99937e-07 4.58048e-08)
(0.000766637 1.11498e-07 4.73581e-08)
(0.00102191 -3.03214e-07 1.74888e-07)
(0.000764483 -1.97776e-07 5.66748e-08)
(0.000765127 7.75917e-08 5.61089e-08)
(0.00101996 -2.59758e-07 1.47485e-07)
(0.000763105 -3.83856e-07 5.12438e-08)
(0.00076373 -1.2701e-07 7.35049e-08)
(0.00101813 -2.74434e-07 1.71721e-07)
(0.000761663 -5.21683e-07 1.06469e-08)
(0.000762369 -3.88837e-07 4.7839e-08)
(0.00101641 -7.03306e-07 1.67114e-07)
(0.00075993 -3.74584e-07 2.68156e-08)
(0.000760796 9.7121e-07 2.43483e-08)
(0.0010142 -6.34244e-07 8.71883e-08)
(0.000759442 -5.04682e-07 4.88738e-08)
(0.00101184 -3.5949e-07 2.64452e-07)
(-0.00188247 -0.0123815 7.36488e-05)
(0.0016225 -0.00649094 -0.000394282)
(-0.00188247 -0.0123815 7.36488e-05)
(-0.0176892 -0.00931807 0.000213475)
(-0.0160164 -0.00158533 0.00069362)
(-0.00249748 0.00373058 0.00168287)
(0.000438016 0.00397554 0.000148225)
(-0.00199621 -0.00387205 0.000527046)
(0.000216335 -0.000378162 0.000802922)
(0.00401253 0.0204057 0.00105524)
(0.000556187 0.00835766 0.00296786)
(-0.0171502 0.00557525 0.000196494)
(-0.00905692 -0.00221805 0.000889573)
(0.00928055 -0.0192359 -0.000643174)
(-0.00394071 -0.0141211 0.000174215)
(0.00452201 -0.0103102 0.000937168)
(-0.00202677 -0.0112799 0.001273)
(0.00365812 -0.00804236 0.000171749)
(0.00634971 -0.00187141 -0.000201742)
(0.00392428 -0.0120967 0.000551745)
(0.00339999 -0.00940477 0.00131626)
(0.0195481 -0.00851234 -0.000594558)
(0.0197906 -0.00691111 0.000185478)
(0.00845609 -0.000511636 -0.000227663)
(0.014545 -0.00681558 -0.00148383)
(0.00852899 -0.00888099 -0.000528786)
(-0.00536659 -0.00132007 -0.000137332)
(-0.00143944 -0.00397607 0.000387086)
(0.00113876 -0.00178356 2.81441e-05)
(-0.000229316 -0.0039791 -0.000173121)
(-0.00268383 0.000245828 -3.80385e-05)
(0.000343979 -6.89787e-05 8.59768e-06)
(0.000412834 -7.81432e-06 -1.35203e-06)
(0.000424806 -1.04628e-05 -2.58306e-06)
(0.000768179 -3.30454e-05 1.9869e-06)
(0.000353056 -7.36724e-05 2.22667e-05)
(0.000571592 -0.00015823 2.14867e-05)
(0.000639257 -0.000115278 5.72648e-05)
(0.000364116 1.54376e-05 2.9153e-06)
(0.000671842 6.28486e-05 1.36638e-05)
(0.000569722 3.5106e-05 -4.0555e-07)
(0.000309884 -1.2359e-07 -1.57768e-06)
(0.000767976 -1.99893e-06 -1.06026e-06)
(0.000773938 -3.23187e-05 -2.13832e-06)
(0.00103884 -7.1534e-06 -1.20008e-06)
(0.000537834 -1.52153e-06 -4.35041e-06)
(0.00052754 -6.94428e-06 -3.90745e-06)
(0.000904665 5.92046e-07 -4.64029e-06)
(0.000892772 -1.06176e-05 -4.15467e-06)
(0.000783144 9.6695e-07 -1.86385e-08)
(0.00077541 -6.57278e-06 -5.48284e-08)
(0.00102947 2.17432e-06 8.67465e-08)
(0.000794798 4.46372e-07 5.94983e-08)
(0.000791055 -7.75789e-06 6.05003e-08)
(0.00105371 4.24954e-07 1.80325e-07)
(0.00080182 5.021e-07 5.25275e-08)
(0.000799971 -4.71987e-06 5.81922e-08)
(0.0010649 7.04942e-07 1.79224e-07)
(0.000805973 3.80683e-07 5.60617e-08)
(0.000805027 -3.14326e-06 5.65991e-08)
(0.00107224 5.62333e-07 1.78628e-07)
(0.000808138 1.44845e-07 5.40107e-08)
(0.000807866 -2.0762e-06 5.67727e-08)
(0.00107631 3.93407e-07 1.80016e-07)
(0.000808853 -8.28588e-09 5.19669e-08)
(0.000809036 -1.44118e-06 5.47024e-08)
(0.0010781 -5.38122e-08 1.8005e-07)
(0.000808773 5.80332e-08 3.9552e-08)
(0.000809159 -9.20707e-07 5.39572e-08)
(0.00107846 -4.41444e-09 1.79989e-07)
(0.000807927 1.00773e-07 -3.44595e-08)
(0.000808614 -4.60438e-07 4.19487e-08)
(0.00107777 1.16374e-07 1.56075e-07)
(0.000806893 8.09285e-08 -9.78929e-09)
(0.000807645 -3.79006e-07 -1.99237e-08)
(0.0010765 9.75538e-08 1.87063e-07)
(0.000805584 1.5217e-07 6.0415e-08)
(0.000806585 1.75504e-07 8.44041e-08)
(0.00107495 4.47682e-08 1.51982e-07)
(0.000804687 2.76049e-07 3.7595e-08)
(0.00080525 -3.99402e-07 7.84073e-08)
(0.00107338 2.77508e-07 1.02955e-07)
(0.000803158 3.44627e-07 3.75997e-08)
(0.000803839 1.12542e-07 3.7049e-08)
(0.00107173 3.82765e-07 1.80427e-07)
(0.000801573 2.19647e-07 4.74852e-08)
(0.000802341 4.04279e-07 4.33938e-08)
(0.0010697 4.69408e-07 1.70614e-07)
(0.000800045 6.411e-08 3.92394e-08)
(0.000800773 -1.61885e-08 5.01951e-08)
(0.0010676 8.38353e-08 1.50938e-07)
(0.000798502 5.91927e-08 2.58255e-08)
(0.000799289 -1.74564e-07 8.59692e-08)
(0.0010655 1.12528e-07 1.81503e-07)
(0.00079692 -2.92158e-08 4.12925e-08)
(0.000797644 -3.89504e-07 -2.45914e-08)
(0.0010635 1.0136e-07 1.93483e-07)
(0.000795476 -1.75614e-07 5.38395e-08)
(0.000796086 -4.32102e-08 5.52481e-08)
(0.00106149 -1.20744e-07 1.73666e-07)
(0.000793978 -2.69763e-07 4.26198e-08)
(0.000794629 2.46583e-08 4.25962e-08)
(0.00105946 -2.92257e-07 1.74933e-07)
(0.000792453 -3.39583e-07 4.34505e-08)
(0.000793118 -2.37181e-08 4.65089e-08)
(0.00105742 -3.72451e-07 1.76875e-07)
(0.0007909 -6.89855e-07 5.58588e-08)
(0.000791414 -2.72305e-07 5.56189e-08)
(0.00105543 -4.92545e-07 1.7975e-07)
(0.000789035 -8.46085e-07 7.59441e-08)
(0.000789815 1.5052e-06 5.56993e-09)
(0.00105315 -1.33039e-06 1.69885e-07)
(0.000786983 -6.08155e-07 1.1543e-07)
(0.000788278 -1.86211e-08 6.46509e-08)
(0.00105039 -9.0835e-07 2.00014e-07)
(0.000786136 -4.13988e-07 9.79965e-08)
(0.00078693 -8.57099e-08 1.09778e-07)
(0.0010486 -6.89111e-07 2.71366e-07)
(0.000784903 2.32424e-08 1.24784e-07)
(0.00078586 -8.12235e-08 6.53487e-08)
(0.00104725 -3.93633e-07 2.40309e-07)
(0.000783445 4.43318e-07 1.99698e-07)
(0.000784459 5.9664e-07 2.42423e-07)
(0.00104542 5.07295e-07 1.35698e-07)
(0.000782148 3.85468e-07 1.29303e-07)
(0.000782696 9.41213e-07 1.71795e-07)
(0.00104366 7.45183e-07 9.38963e-08)
(0.000780393 2.1776e-07 4.53012e-08)
(0.00078103 3.08657e-07 7.15855e-08)
(0.00104154 3.12453e-07 1.79799e-07)
(0.000778963 2.11604e-07 4.06449e-08)
(0.000779591 7.07895e-08 4.62356e-08)
(0.00103935 2.50781e-07 1.66408e-07)
(0.000777508 2.27342e-07 5.00217e-08)
(0.000778139 1.55155e-07 5.01559e-08)
(0.00103746 2.7907e-07 1.73271e-07)
(0.000775941 2.91917e-07 4.83243e-08)
(0.000776702 1.96577e-07 5.47178e-08)
(0.00103553 3.32068e-07 1.80121e-07)
(0.000774542 4.02109e-07 1.95602e-08)
(0.000775235 3.8426e-07 4.16838e-08)
(0.00103347 5.13188e-07 1.63268e-07)
(0.000772646 2.39899e-07 2.89332e-08)
(0.000773461 -4.38355e-07 5.72103e-08)
(0.00103118 6.19599e-07 1.66648e-07)
(0.000771298 -1.28975e-07 6.86689e-08)
(0.000771797 2.08898e-08 5.96892e-08)
(0.0010291 4.67836e-08 1.73676e-07)
(0.000769772 -4.26278e-07 5.10449e-08)
(0.000770314 -2.1175e-07 -3.06844e-08)
(0.00102712 -3.62597e-07 1.93307e-07)
(0.000768597 -4.24116e-07 5.91859e-08)
(0.000769322 -8.67483e-07 3.25422e-08)
(0.00102529 -7.30019e-07 1.82931e-07)
(0.000767362 -1.74484e-07 7.44128e-08)
(0.000768407 -2.55508e-08 8.76933e-08)
(0.00102389 -4.35911e-07 1.34288e-07)
(0.000765964 -8.76555e-08 5.76595e-08)
(0.000766748 4.38959e-08 5.57418e-08)
(0.00102207 -1.20764e-07 1.73426e-07)
(0.000764353 -6.03728e-08 7.29336e-08)
(0.000765162 6.12621e-08 5.56357e-08)
(0.00102003 -1.74671e-07 1.8938e-07)
(0.000763016 -7.38398e-08 7.01079e-08)
(0.000763713 -1.43353e-07 5.91667e-08)
(0.0010181 -1.7204e-08 1.64786e-07)
(0.000761558 -2.11204e-07 6.15475e-08)
(0.000762198 -3.88816e-07 5.55133e-08)
(0.00101619 -1.67905e-07 1.74833e-07)
(0.000760151 -2.65752e-07 4.6399e-08)
(0.000760731 1.86305e-07 6.3073e-08)
(0.00101418 -3.87517e-07 2.27898e-07)
(0.000759773 2.12776e-07 4.69614e-08)
(0.0010129 -3.24405e-07 7.71112e-08)
(0.00378583 0.000634388 -0.000189051)
(-0.0145606 -0.00874883 0.000599783)
(-0.00352563 -0.00652885 -0.000376155)
(0.00479885 -0.000143201 0.000296436)
(-0.00124495 -0.00510207 -9.471e-05)
(0.00324403 -0.00911731 -0.000328234)
(-0.0153069 -0.00535183 -0.000801691)
(-0.013463 -0.0125686 0.0018487)
(-0.0122367 -0.00380384 -0.00222778)
(-6.64284e-05 -0.0109752 -6.8945e-05)
(-6.64284e-05 -0.0109752 -6.8945e-05)
(-6.64284e-05 -0.0109752 -6.8945e-05)
(-6.64284e-05 -0.0109752 -6.8945e-05)
(-0.00815756 0.00410452 0.000206542)
(0.00431437 0.0115556 0.00078262)
(0.00717191 0.00782973 0.000165166)
(0.00374444 0.00263009 -0.000292828)
(0.00272429 -0.0056936 -5.47495e-05)
(-0.0124205 0.0200285 -0.00116914)
(-0.0195204 0.0541482 0.00133333)
(-0.00251372 0.0246808 -0.00464115)
(-0.00483113 0.0017979 -0.00191548)
(-0.0115814 -0.0420252 0.00253666)
(-0.00692103 -0.00780727 -0.000302758)
(-0.0241998 -0.00197375 -0.00200377)
(0.0145181 6.37525e-05 -0.0018588)
(0.00600738 0.00421801 -0.001198)
(0.00157972 0.010417 -5.16627e-05)
(0.00858566 0.00902283 0.000189629)
(0.00244431 0.0187978 0.000253766)
(0.00447404 0.0197044 -0.00109078)
(0.00230809 0.0115389 -0.000154237)
(0.00191154 -0.00137136 -0.000118951)
(-0.000659582 0.000733397 0.000118885)
(0.00300556 0.000894575 -0.000136677)
(-0.000416662 0.00365289 -0.000111684)
(-0.00176001 0.00311213 -0.000646994)
(0.00104328 -6.1378e-05 4.93421e-06)
(0.000372912 -8.34614e-05 3.10948e-05)
(0.000380087 -0.000239128 3.91602e-05)
(0.000563695 -0.000161526 7.45402e-05)
(0.000283927 -9.75392e-05 1.91949e-05)
(0.000773947 -3.67812e-05 -1.13357e-06)
(0.000539674 -5.0141e-05 -1.80765e-06)
(0.00102619 -8.16665e-05 -1.44462e-06)
(0.000541067 -2.08719e-05 -4.94189e-06)
(0.000527113 -6.37805e-05 -1.33583e-06)
(0.00090827 -1.88056e-05 -4.55803e-06)
(0.000916199 -0.000116432 3.73418e-06)
(0.000527766 -5.93727e-05 -4.16713e-06)
(0.000915482 -8.67335e-05 -1.51383e-06)
(0.000888384 -9.88995e-05 -5.18615e-06)
(0.000785247 -1.42272e-05 2.42727e-08)
(0.000809296 -2.2953e-05 -6.04215e-07)
(0.00103835 -1.61244e-05 1.92193e-07)
(0.000797387 -1.30965e-05 5.9195e-08)
(0.000792564 -2.49487e-05 -6.36469e-08)
(0.0010557 -2.18232e-05 1.76444e-07)
(0.000803745 -8.27831e-06 6.22643e-08)
(0.000806053 -1.47416e-05 1.19793e-07)
(0.00106826 -1.3092e-05 1.8079e-07)
(0.000807361 -5.55909e-06 5.731e-08)
(0.000808464 -9.74759e-06 5.23523e-08)
(0.00107437 -9.01002e-06 1.81998e-07)
(0.000809074 -3.61119e-06 5.7465e-08)
(0.000810326 -6.30207e-06 6.16915e-08)
(0.00107785 -5.83509e-06 1.82676e-07)
(0.000809497 -2.34192e-06 5.66929e-08)
(0.000810639 -4.0355e-06 5.73258e-08)
(0.00107915 -3.8122e-06 1.81675e-07)
(0.000809148 -1.52074e-06 5.63578e-08)
(0.000810196 -2.53385e-06 5.48889e-08)
(0.0010791 -2.4468e-06 1.8076e-07)
(0.000808376 -9.66645e-07 5.65046e-08)
(0.000809313 -1.59658e-06 5.51227e-08)
(0.00107831 -1.62251e-06 1.85197e-07)
(0.000807348 -5.5678e-07 7.4236e-08)
(0.000808162 -1.06876e-06 5.32638e-08)
(0.001077 -9.7465e-07 1.77106e-07)
(0.000806336 -3.62138e-07 1.02398e-07)
(0.000806832 -1.38899e-06 8.81165e-08)
(0.00107573 -5.51347e-07 2.36514e-07)
(0.000804334 -2.46234e-07 7.78746e-08)
(0.000805397 1.40751e-07 8.37011e-08)
(0.0010737 -5.06617e-07 1.76849e-07)
(0.000803169 -2.12352e-07 4.28411e-08)
(0.000803883 -4.19718e-07 3.65717e-08)
(0.00107155 -2.48204e-07 1.78926e-07)
(0.000801408 -1.67088e-07 4.61015e-08)
(0.000802399 3.67013e-07 5.7954e-08)
(0.00106961 -3.59867e-07 1.96526e-07)
(0.000800077 -3.94077e-08 9.69135e-08)
(0.000800933 -3.07447e-07 5.14409e-08)
(0.00106753 -1.01453e-07 1.77128e-07)
(0.000798481 2.0135e-09 3.55875e-08)
(0.00079934 -3.22841e-07 7.44579e-08)
(0.00106564 -8.68258e-09 1.90605e-07)
(0.000796697 4.0903e-08 -1.06611e-08)
(0.000797692 -1.6624e-07 -1.1243e-08)
(0.00106328 4.18777e-08 1.81231e-07)
(0.00079526 5.74964e-08 4.40088e-08)
(0.000796107 -1.73002e-07 4.00864e-08)
(0.00106113 7.83552e-08 1.76081e-07)
(0.000793781 2.54945e-09 4.6484e-08)
(0.00079456 -1.03808e-07 3.41775e-08)
(0.00105921 6.64332e-08 1.79852e-07)
(0.000792189 -6.04294e-08 5.86745e-08)
(0.000793039 1.98556e-07 6.29289e-08)
(0.00105719 -3.97712e-08 1.65431e-07)
(0.000790194 -9.66025e-08 5.34579e-09)
(0.000791369 -2.79364e-08 7.30309e-08)
(0.00105463 -7.9579e-08 1.99546e-07)
(0.000789159 9.46718e-08 -5.74187e-09)
(0.000790053 -7.5409e-07 -1.06324e-08)
(0.00105269 -1.32121e-07 2.91808e-07)
(0.000787998 5.22302e-07 5.89854e-08)
(0.000788811 -1.26262e-06 3.41254e-08)
(0.00105139 4.39068e-07 2.31565e-07)
(0.000786755 7.33785e-07 7.71446e-08)
(0.000787192 -7.26273e-07 5.14159e-08)
(0.00104958 9.90926e-07 1.96606e-07)
(0.000785473 6.01779e-07 1.82932e-07)
(0.000785692 -1.99587e-06 3.47578e-08)
(0.00104809 9.6297e-07 2.90682e-07)
(0.000783784 4.49033e-07 2.14542e-07)
(0.000784266 4.71943e-07 1.69373e-07)
(0.00104619 6.31868e-07 2.00123e-07)
(0.000781474 3.09288e-07 1.14109e-07)
(0.00078252 3.37198e-08 9.34179e-08)
(0.00104319 5.41135e-07 3.11321e-07)
(0.000780211 1.9903e-07 7.25277e-08)
(0.000780891 4.90292e-08 2.84499e-08)
(0.00104088 2.33045e-07 1.72351e-07)
(0.000778798 1.7097e-07 5.57454e-08)
(0.000779556 -4.88676e-08 4.87413e-08)
(0.00103922 2.36964e-07 1.75963e-07)
(0.000777306 1.1195e-07 5.48506e-08)
(0.000778065 1.38128e-07 5.20198e-08)
(0.00103724 1.77012e-07 1.75958e-07)
(0.000775958 1.01675e-07 4.80813e-08)
(0.000776689 1.12267e-07 4.58342e-08)
(0.00103535 1.00519e-07 1.68178e-07)
(0.000774365 5.99114e-08 7.93291e-08)
(0.000775183 6.01462e-07 2.3992e-08)
(0.00103343 1.30154e-07 1.68777e-07)
(0.000772393 1.85337e-08 8.79656e-08)
(0.00077341 8.75616e-07 7.4994e-08)
(0.00103096 -6.11315e-09 1.24179e-07)
(0.000770921 4.0924e-08 -3.96362e-08)
(0.000771825 1.97249e-07 5.74507e-08)
(0.00102862 4.84888e-08 1.61279e-07)
(0.000769491 3.09163e-07 -4.92065e-08)
(0.000770648 5.16416e-07 -3.92702e-08)
(0.00102664 8.52884e-08 1.17935e-07)
(0.000769528 4.26288e-07 6.10327e-08)
(0.000769466 -2.46444e-06 4.32328e-08)
(0.0010258 7.90551e-07 1.53687e-07)
(0.000767786 2.07746e-07 6.9032e-08)
(0.000768131 2.56013e-07 4.68355e-08)
(0.00102477 4.36032e-07 1.79058e-07)
(0.00076588 1.53411e-07 5.3718e-08)
(0.000766678 6.31923e-07 5.25013e-08)
(0.00102224 2.56637e-07 1.71914e-07)
(0.000764468 2.12817e-07 4.18677e-08)
(0.000765235 -4.03833e-08 4.72677e-08)
(0.0010201 2.73903e-07 1.77506e-07)
(0.000762928 2.17276e-07 4.45732e-08)
(0.000763717 -8.31075e-09 3.58915e-08)
(0.00101814 3.60365e-07 1.72265e-07)
(0.000761361 1.72613e-07 5.70365e-08)
(0.000762141 -4.95761e-08 -3.54441e-08)
(0.00101595 2.61437e-07 1.59951e-07)
(0.000760146 1.27867e-07 6.36402e-08)
(0.000760673 -3.28176e-07 4.78711e-08)
(0.00101401 2.19906e-07 1.90591e-07)
(0.000759613 1.50074e-07 6.03814e-08)
(0.00101273 1.19206e-07 1.58502e-07)
(-0.0250598 -0.00166705 -4.69538e-05)
(-0.00657233 -0.00468785 0.000562183)
(-0.0186884 -0.0104363 0.0018555)
(0.00619978 0.00229526 7.64878e-05)
(0.00175691 -0.00350175 -0.000204)
(0.00528854 0.00201425 -0.000662073)
(0.00573894 0.00371161 0.000198375)
(-0.00750579 0.00144653 -0.000625462)
(0.0152419 -0.00531854 -0.000890821)
(0.00337264 -0.00930667 0.00154403)
(0.00802996 -0.00162414 -0.00173434)
(0.00278301 -0.02035 -0.00026177)
(0.00335707 -0.00139644 -0.000471033)
(0.0072608 5.89913e-05 0.00042687)
(0.00420845 0.00142864 0.000416271)
(0.0083051 0.0024303 0.000251844)
(0.00688083 -0.00157704 0.000489236)
(0.00246889 0.00023109 0.00100949)
(0.00304455 0.006236 0.00125735)
(0.0197076 -0.00290309 -0.00029245)
(0.00316592 0.00971995 -0.000178366)
(0.0111577 0.00282705 -0.000782621)
(0.00522598 0.00193583 -0.000879613)
(0.00545735 -0.000766036 0.000186396)
(0.00639162 0.000323322 9.17011e-05)
(0.00568697 0.000536501 0.000274072)
(0.00522169 0.000935181 0.000165778)
(0.00468555 0.00320019 -6.46016e-05)
(0.00638806 0.00216631 7.22359e-05)
(0.00563474 0.00373963 -0.00010085)
(-0.0015079 0.00444898 0.000681466)
(-0.00210303 -0.000201009 0.000194878)
(-0.00182772 -0.000151397 0.000612723)
(-0.00229012 0.000834603 0.00109557)
(0.0042783 -0.00518453 -0.00016465)
(0.00178979 -0.00200818 -0.00021265)
(0.00444695 0.00385226 -0.0001228)
(0.00559691 -0.000310154 -0.000209187)
(0.00833322 -0.00420513 -0.000551683)
(0.000368215 0.000170505 1.83821e-05)
(0.00132587 0.000161825 -7.81767e-06)
(0.00132626 0.000512344 -4.2766e-05)
(0.00162686 0.000527734 -0.000117749)
(0.00148452 0.000116494 1.3526e-05)
(0.000303142 -4.12655e-05 -2.92287e-06)
(0.000454699 -4.33748e-05 -3.49989e-06)
(0.000426452 -5.11537e-05 -6.29007e-07)
(0.000706677 -7.08564e-05 -2.07179e-06)
(0.000299377 -2.19338e-05 -2.16488e-06)
(0.000557107 -8.1618e-05 -3.68328e-06)
(0.000556929 -3.21964e-05 -1.1406e-06)
(0.000797526 -3.71095e-05 -6.92312e-07)
(0.000864263 -5.7556e-05 -1.32987e-06)
(0.00111966 -5.55191e-05 -9.68837e-07)
(0.000565493 -4.27832e-05 -3.81504e-06)
(0.000577695 -3.97999e-05 -4.36816e-06)
(0.000930713 -8.0129e-05 -4.83429e-06)
(0.00095714 -7.36846e-05 -5.62937e-06)
(0.000806557 -2.60556e-05 -3.10853e-09)
(0.000806654 -3.68744e-05 -3.12223e-07)
(0.00105776 -4.35512e-05 8.04412e-08)
(0.0008105 -1.58992e-05 1.09903e-07)
(0.000818849 -2.21328e-05 1.6458e-07)
(0.00108108 -2.59206e-05 2.07504e-07)
(0.000811932 -1.01576e-05 5.67308e-08)
(0.000815703 -1.36302e-05 2.3056e-07)
(0.00108142 -1.64526e-05 1.82275e-07)
(0.000812096 -6.44181e-06 6.15536e-08)
(0.00081501 -8.61775e-06 9.17088e-08)
(0.00108287 -1.06005e-05 1.8409e-07)
(0.000811465 -3.9656e-06 5.55226e-08)
(0.000813759 -5.31236e-06 5.6934e-08)
(0.00108238 -6.55508e-06 1.8148e-07)
(0.00081043 -2.42007e-06 5.36537e-08)
(0.000812142 -3.28018e-06 5.44894e-08)
(0.00108123 -3.99159e-06 1.80458e-07)
(0.000809151 -1.50637e-06 5.18825e-08)
(0.000810464 -2.02286e-06 5.57449e-08)
(0.00107963 -2.42982e-06 1.80347e-07)
(0.000807679 -9.31056e-07 6.7133e-08)
(0.000808886 -1.23016e-06 5.12155e-08)
(0.00107785 -1.56551e-06 1.79523e-07)
(0.000805954 -6.84043e-07 6.94208e-08)
(0.000807144 -8.32209e-07 6.64578e-08)
(0.00107554 -8.97795e-07 1.51949e-07)
(0.000804925 -5.84337e-07 4.24134e-08)
(0.000805524 -6.84772e-07 1.35384e-07)
(0.00107377 -8.9634e-07 1.874e-07)
(0.000803059 -4.58573e-07 5.16778e-08)
(0.000804043 -5.75043e-08 -2.33572e-09)
(0.00107192 -6.62907e-07 1.77674e-07)
(0.000801971 -3.48995e-07 6.32955e-08)
(0.000802538 -8.66948e-08 7.07727e-08)
(0.00106989 -5.8369e-07 1.67004e-07)
(0.000800214 -2.59162e-07 2.8978e-08)
(0.000801047 -8.8265e-08 6.57234e-08)
(0.00106804 -3.63461e-07 1.78653e-07)
(0.000798519 -1.91003e-07 2.76547e-08)
(0.000799427 7.79636e-07 3.96981e-08)
(0.00106568 -3.62492e-07 1.12071e-07)
(0.000797129 -3.33011e-08 3.94882e-08)
(0.00079789 9.02468e-08 8.33916e-08)
(0.00106361 -1.80427e-07 1.44519e-07)
(0.00079537 1.34933e-07 3.0257e-08)
(0.000796317 4.21165e-08 5.20733e-08)
(0.00106152 5.93983e-08 1.80052e-07)
(0.000793802 2.48e-07 5.06134e-08)
(0.0007947 -2.83889e-08 4.94031e-08)
(0.00105931 2.63596e-07 1.7346e-07)
(0.000792324 3.27139e-07 7.72822e-08)
(0.000793137 -2.54968e-08 6.93125e-08)
(0.00105724 3.83433e-07 1.86742e-07)
(0.000791005 6.41884e-07 5.70792e-08)
(0.00079176 -4.37801e-07 4.75667e-08)
(0.00105532 5.25205e-07 1.86165e-07)
(0.000789852 8.85498e-07 2.92207e-08)
(0.000790354 -2.09689e-06 1.65442e-08)
(0.00105379 1.26104e-06 2.37594e-07)
(0.000787991 8.47444e-07 2.65504e-08)
(0.000788759 5.95046e-08 2.8358e-08)
(0.00105179 1.15733e-06 1.12216e-07)
(0.000786165 8.14648e-07 9.03432e-09)
(0.000787147 -7.6296e-08 -8.43623e-09)
(0.00104924 1.12205e-06 1.56871e-07)
(0.000784372 5.18187e-07 2.11561e-08)
(0.000785319 -4.11441e-07 1.83724e-08)
(0.00104679 1.0747e-06 8.79479e-08)
(0.000783212 9.66189e-08 4.82727e-08)
(0.000783738 -2.13723e-08 4.53182e-08)
(0.00104489 3.26319e-07 1.79265e-07)
(0.000781729 2.88231e-08 7.77948e-09)
(0.000782434 5.98155e-08 5.03894e-08)
(0.00104316 -6.60679e-08 1.71348e-07)
(0.00078031 1.03949e-07 4.65715e-09)
(0.000780985 2.57505e-07 1.61187e-08)
(0.00104116 1.51811e-07 1.52931e-07)
(0.000778792 9.70889e-08 4.50147e-08)
(0.000779547 3.93607e-10 4.54178e-08)
(0.00103928 1.18032e-07 1.73185e-07)
(0.00077739 7.21578e-08 4.30053e-08)
(0.000778033 1.83877e-08 3.43129e-08)
(0.00103729 1.06177e-07 1.75357e-07)
(0.000776026 -1.32435e-07 2.17517e-08)
(0.000776434 -3.41173e-08 4.21563e-08)
(0.00103547 2.83033e-08 1.74026e-07)
(0.000774274 -3.15873e-07 1.96412e-08)
(0.000774954 2.07394e-06 5.55052e-08)
(0.00103333 -4.32323e-07 9.28817e-08)
(0.000772723 -1.53725e-07 4.44846e-08)
(0.000773613 1.46693e-06 6.57781e-08)
(0.00103108 -4.44916e-07 1.3831e-07)
(0.000771437 1.33659e-07 5.78465e-08)
(0.000772184 -6.34761e-08 5.79737e-08)
(0.00102921 6.27434e-09 1.76087e-07)
(0.000770728 4.13697e-07 5.31437e-08)
(0.000770997 -2.30425e-07 1.09822e-07)
(0.00102804 3.5025e-07 1.59414e-07)
(0.000768084 4.30008e-07 2.90345e-08)
(0.000769485 -1.21305e-06 5.58607e-08)
(0.00102573 7.63043e-07 1.90107e-07)
(0.000767024 1.25117e-07 3.0303e-08)
(0.000767748 3.87772e-07 -2.08717e-09)
(0.00102322 4.25582e-07 1.28053e-07)
(0.000766025 -3.71238e-09 4.60526e-08)
(0.000766516 2.08009e-07 4.60945e-08)
(0.00102186 -1.56211e-08 1.6302e-07)
(0.000764548 7.89895e-08 4.12949e-08)
(0.000765338 1.21954e-07 4.53154e-08)
(0.00102015 5.11647e-08 1.64207e-07)
(0.000762798 1.17693e-07 -4.41041e-08)
(0.000763765 -6.48112e-08 7.43261e-09)
(0.00101808 1.51143e-07 2.05329e-07)
(0.000761568 1.76948e-07 -4.46348e-08)
(0.000762215 -2.6532e-07 -6.58077e-08)
(0.00101601 1.48111e-07 1.69771e-07)
(0.000759901 2.32955e-07 4.46085e-08)
(0.00076074 1.05625e-07 2.06274e-08)
(0.001014 3.20377e-07 1.62577e-07)
(0.000759323 3.22525e-07 7.14078e-08)
(0.00101247 2.98364e-07 1.27706e-07)
(-0.0024218 -0.00862905 0.000355872)
(-0.00592183 -0.000506758 -0.000119871)
(-0.00455557 -0.0100181 0.00034899)
(-0.00715155 -0.00794842 0.000623994)
(0.00194712 0.00407009 0.000212695)
(-0.00337516 -0.00689752 0.000658422)
(-0.000986349 -0.00450978 3.14222e-05)
(0.00146517 0.00406919 -0.000241332)
(-0.00647001 -0.007004 0.00511048)
(-0.00184193 0.00418415 0.0041962)
(-0.00503223 0.00750491 0.00118278)
(0.000169727 0.00386504 -0.0100126)
(-0.00131319 0.00122742 0.000899182)
(-0.00809431 -0.0211177 -0.00157702)
(0.0121823 0.00536636 -0.00379334)
(-0.0175954 0.00128154 -0.00622855)
(-0.0143313 0.00965797 0.0109509)
(-0.00878499 -0.00840581 -0.00945743)
(-0.0355706 0.00638372 -0.00827779)
(0.00465174 -0.00382469 0.000674098)
(0.0125671 0.00155184 0.00304497)
(-0.000374303 0.0188108 -0.00108855)
(-0.00270754 0.025664 -0.00142994)
(0.000234482 -0.000547153 0.000431475)
(-0.00202811 0.00238304 0.000190136)
(-0.00245884 -0.00170874 -0.000134683)
(-0.0005372 0.000301608 0.000400282)
(0.000396889 -0.00976073 0.000131103)
(0.00361463 -0.00803186 2.97507e-05)
(-0.00177319 -0.00746817 -0.000356104)
(0.00155052 -0.00771751 -0.000362081)
(0.00113984 -0.00440052 -0.000284295)
(-0.00292927 -0.006442 -0.000125927)
(-0.00872721 -0.00636129 -6.51086e-05)
(-3.76489e-05 -0.00405595 -0.000181676)
(-0.00307064 -0.00606274 -0.000303598)
(-0.00640583 -0.0104256 -0.000757041)
(0.000413223 -8.0822e-05 6.1417e-05)
(0.000789032 -0.000332976 4.74314e-05)
(0.000918296 -0.000257357 0.000113499)
(0.000852138 -0.000393636 -3.77145e-05)
(0.000800325 -0.000229666 5.8583e-05)
(0.000325411 -4.90627e-05 -1.28485e-06)
(0.000489186 -6.21551e-05 -3.53567e-06)
(0.00045343 -7.35167e-05 -1.09814e-06)
(0.000732839 -0.000127698 -1.18713e-06)
(0.000325323 -4.74462e-05 -7.52352e-07)
(0.000614509 -8.78234e-05 3.9638e-06)
(0.000620376 -8.40712e-05 5.23205e-06)
(0.000434427 -6.91429e-05 -7.51437e-07)
(0.000833376 -4.91099e-05 -9.50115e-07)
(0.000907767 -5.12148e-05 -1.61757e-06)
(0.00118513 -8.17353e-05 -1.1587e-06)
(0.000610752 -5.2308e-05 -3.75301e-06)
(0.000625243 -4.87822e-05 -4.71281e-06)
(0.00101241 -9.49629e-05 -4.61829e-06)
(0.00104801 -8.69876e-05 -5.99608e-06)
(0.000827345 -2.95866e-05 -1.4469e-07)
(0.000831269 -2.99576e-05 -4.60703e-07)
(0.00109345 -4.92805e-05 7.9792e-08)
(0.000822784 -1.79366e-05 2.85216e-07)
(0.000833517 -1.88753e-05 1.49102e-07)
(0.0011024 -2.95525e-05 2.06227e-07)
(0.000818925 -1.09066e-05 2.65584e-07)
(0.000824554 -1.09196e-05 2.66601e-07)
(0.00109368 -1.81955e-05 1.83373e-07)
(0.000816816 -6.63854e-06 8.71006e-08)
(0.000820384 -8.71481e-06 1.00152e-07)
(0.00109033 -1.08195e-05 2.26635e-07)
(0.000814436 -4.22059e-06 5.59017e-08)