/*--------------------------------*- C++ -*----------------------------------*\
| =========                 |                                                 |
| \\      /  F ield         | OpenFOAM: The Open Source CFD Toolbox           |
|  \\    /   O peration     | Version:  5.0                                   |
|   \\  /    A nd           | Web:      www.OpenFOAM.org                      |
|    \\/     M anipulation  |                                                 |
\*---------------------------------------------------------------------------*/
FoamFile
{
    version     2.0;
    format      ascii;
    class       surfaceScalarField;
    location    "4";
    object      alphaPhi10;
}
// * * * * * * * * * * * * * * * * * * * * * * * * * * * * * * * * * * * * * //

dimensions      [0 3 -1 0 0 0 0];

internalField   nonuniform List<scalar> 
26755
(
-5.01022e-09
-3.27056e-09
-1.90615e-08
-3.1976e-08
-2.83813e-08
1.42891e-07
1.50127e-07
-6.10519e-07
-5.50568e-09
-3.27307e-08
-1.68604e-08
5.06849e-09
-2.15244e-08
4.23195e-08
2.4027e-08
-1.0004e-07
-6.15957e-08
6.57369e-08
-4.534e-09
-1.67239e-08
5.76113e-08
-1.53756e-09
-4.04994e-10
-1.22831e-08
-2.9078e-08
-1.2187e-08
-3.91891e-09
-1.67057e-09
2.16136e-08
-8.55741e-11
6.27661e-08
6.28131e-08
6.27763e-08
4.1113e-22
1.56643e-18
-3.15378e-19
8.65458e-18
1.45266e-17
-1.94107e-17
-6.08851e-18
1.74421e-18
1.85627e-18
1.74678e-18
-4.40721e-24
1.64983e-22
-9.75231e-24
5.10461e-27
4.24119e-26
1.4889e-28
1.23323e-27
-3.12436e-29
-1.0843e-30
3.50423e-30
1.0093e-30
-1.95422e-31
8.89704e-34
1.3785e-33
-3.20961e-33
8.34826e-38
1.60985e-38
1.55087e-36
2.58857e-41
2.61024e-41
1.22687e-39
1.0566e-44
-5.29361e-46
5.05148e-44
4.38904e-48
2.76204e-48
7.37865e-47
1.83463e-51
3.71041e-52
4.74852e-49
7.6253e-55
2.36565e-55
4.93762e-52
3.17456e-58
4.643e-59
-9.51321e-55
1.34364e-61
1.12037e-62
5.8116e-59
5.62015e-65
-7.39275e-66
-5.53488e-62
2.34e-68
8.92585e-69
-2.14196e-64
9.84264e-72
1.43561e-72
-2.88488e-68
5.43314e-75
-7.76733e-76
5.67519e-71
3.78981e-78
-1.61688e-78
-1.50014e-73
1.20037e-81
6.08237e-82
-4.57611e-77
8.3012e-85
5.63545e-87
-1.48069e-80
1.63093e-87
-2.79608e-88
7.02724e-83
2.39693e-91
-2.06323e-93
6.40589e-88
1.51513e-94
8.48861e-95
1.21161e-90
5.54453e-98
1.97505e-99
-1.57652e-94
1.11526e-100
-1.7351e-102
4.66736e-96
2.72187e-103
-1.74551e-103
-2.93557e-99
5.85467e-107
1.04445e-107
-1.49252e-102
3.60734e-110
6.6047e-111
-9.33178e-106
3.99761e-113
2.72917e-114
-1.03362e-108
1.17376e-115
8.13204e-117
-6.87795e-112
1.02468e-119
-1.07904e-120
1.89596e-118
3.56175e-123
-4.41598e-124
2.40846e-124
3.54956e-126
6.08673e-128
-4.36184e-122
5.0137e-129
2.90075e-130
-4.0639e-125
6.88625e-132
1.63131e-132
1.80748e-128
1.23538e-134
7.11923e-135
-1.29101e-130
2.18165e-138
-9.96943e-140
-1.02393e-134
1.49315e-141
1.87086e-141
-2.0473e-136
3.55378e-145
-4.09958e-148
-6.48828e-141
6.24246e-148
-1.6894e-151
-9.78449e-146
7.01877e-150
2.92546e-151
-8.00564e-147
7.91997e-155
1.03444e-154
5.99722e-10
-3.18771e-08
-3.04187e-08
-2.9428e-08
4.79054e-08
5.71561e-08
-1.07933e-08
5.76879e-08
-8.67278e-09
3.39769e-08
-2.32934e-08
-9.45733e-09
2.0762e-09
-2.41051e-08
-2.11711e-08
5.62852e-09
-5.18348e-10
2.81345e-09
1.01577e-08
3.2872e-09
1.67138e-08
-6.2971e-08
-4.5294e-07
1.37171e-07
1.92005e-08
3.92557e-08
6.0522e-09
-2.13907e-08
7.27087e-09
-1.82904e-08
1.99198e-08
3.71379e-08
2.47764e-08
-4.99295e-08
-6.07374e-09
2.17988e-08
-8.93626e-09
4.12042e-10
-8.81639e-09
6.03462e-11
-6.22488e-11
1.78775e-08
4.76933e-11
1.78415e-08
-2.25377e-18
1.74683e-18
2.76599e-08
2.8754e-18
-2.2758e-18
-2.22435e-18
-2.27537e-18
-1.07402e-24
-1.94212e-22
1.80933e-23
6.68237e-22
5.46355e-22
8.53187e-22
5.91071e-22
1.60428e-25
3.5475e-26
1.474e-26
2.5543e-28
6.13642e-27
4.37458e-30
1.08422e-31
5.3276e-29
6.31275e-32
2.8956e-34
2.22023e-32
2.31083e-34
4.58115e-38
8.76493e-37
1.04302e-37
9.39804e-42
2.09217e-40
2.12768e-41
3.64767e-45
4.01999e-44
-1.45938e-43
1.51168e-48
1.24121e-47
-5.20352e-47
6.28528e-52
6.87512e-51
-4.41618e-50
2.60719e-55
1.31781e-54
3.8504e-53
1.07679e-58
2.36849e-58
9.54322e-57
4.45823e-62
1.42325e-61
1.15735e-59
1.86784e-65
4.49978e-66
6.09307e-64
7.96455e-69
-8.88512e-69
-8.88789e-66
3.32214e-72
3.26369e-72
1.4959e-69
1.3835e-75
-1.08862e-75
-8.88701e-74
6.18413e-79
-9.25699e-79
-9.40434e-76
2.73145e-82
-1.73411e-81
-5.33736e-79
1.1802e-85
1.68981e-86
-6.89076e-82
5.95825e-89
3.64925e-89
-3.67027e-84
2.63756e-92
-7.65496e-91
-1.14951e-87
2.2322e-95
6.213e-96
9.28537e-92
3.19616e-98
1.71318e-99
-3.74369e-94
6.17297e-102
-2.59008e-99
-2.51604e-99
4.73209e-105
-4.92857e-103
3.80473e-99
2.14415e-108
4.24574e-109
-3.64534e-104
2.02129e-111
-8.93671e-110
1.52831e-108
6.45305e-115
-1.44675e-113
-5.35779e-110
1.52821e-117
9.51907e-120
3.05873e-119
2.16522e-119
-2.34725e-120
-8.89813e-117
1.98967e-123
-2.06054e-123
9.33339e-119
4.89136e-127
-3.03795e-126
3.80116e-123
3.24723e-130
-2.88145e-130
-1.93519e-125
8.99311e-134
1.05061e-132
-2.75505e-128
3.92624e-137
-5.36664e-138
1.7699e-137
3.57747e-140
1.87626e-140
1.97876e-135
1.93677e-143
1.97725e-145
-6.87932e-138
4.67787e-147
-1.18543e-145
-1.30812e-142
1.74347e-150
-3.82896e-149
8.89755e-147
1.25487e-152
1.71173e-154
5.95462e-151
-1.50911e-157
-1.79423e-151
7.89124e-08
1.43416e-08
-2.09137e-07
1.05888e-08
9.53196e-09
6.41697e-09
7.23129e-09
3.27081e-09
-3.01096e-08
1.43035e-07
-2.09153e-10
4.701e-10
5.09927e-10
1.42291e-09
-1.9514e-08
-8.47805e-09
6.0106e-07
-1.38589e-09
-3.04501e-09
1.65685e-09
-1.06592e-07
-2.62891e-08
-4.2059e-07
2.02594e-08
-7.62714e-09
2.05516e-08
-4.00799e-07
-1.679e-07
-2.43827e-07
-6.62962e-08
-4.99989e-08
2.74887e-09
-2.92122e-07
-2.0145e-09
2.26341e-09
1.00837e-09
4.90329e-09
-3.47738e-09
3.83968e-10
2.86823e-10
9.63519e-10
-1.36747e-10
1.45438e-09
1.67089e-16
-1.19831e-18
-7.00789e-18
-1.2345e-15
1.19536e-15
-4.76017e-16
-5.62292e-18
-5.74826e-09
-5.74826e-09
-5.74826e-09
-5.74826e-09
1.82933e-23
-3.64088e-22
2.7683e-22
7.76755e-20
9.13699e-20
1.18281e-19
6.91352e-21
-8.88214e-26
-2.01447e-25
-7.40872e-27
-6.33546e-27
9.13593e-29
5.77989e-29
1.86337e-28
6.76571e-29
2.19013e-29
2.45871e-32
2.37747e-31
1.26163e-31
1.45224e-36
3.85737e-35
5.35293e-35
4.88735e-40
6.86843e-39
2.01868e-39
1.99009e-43
1.7631e-42
-7.68789e-42
8.1852e-47
4.39436e-46
-2.80075e-44
3.38471e-50
1.48224e-49
-1.90524e-47
1.38126e-53
4.42979e-53
1.93106e-50
5.61429e-57
6.29464e-57
-5.07509e-54
2.30709e-60
1.78313e-60
2.06322e-57
9.58491e-64
3.51974e-64
-3.80997e-61
4.03606e-67
3.40027e-67
-6.15015e-63
1.64422e-70
-4.8755e-72
-3.38403e-67
8.08636e-74
1.54026e-75
2.51938e-69
4.39095e-77
-4.52494e-78
-3.49725e-73
1.86326e-80
-4.96966e-82
-1.80656e-76
8.93864e-84
-5.82312e-86
-1.82698e-82
1.51533e-86
-9.98987e-88
-6.09274e-83
9.2266e-90
-1.17318e-90
-9.21641e-85
1.47648e-93
-7.14574e-94
1.37428e-94
6.55783e-96
-3.18741e-96
1.73527e-97
2.17271e-97
2.06898e-99
-7.68711e-95
1.57674e-101
9.76777e-103
-3.43437e-97
2.14384e-105
1.34361e-105
-1.47424e-100
9.05702e-109
-6.69566e-110
-3.20069e-104
3.54479e-112
8.93496e-113
-8.79058e-108
2.68772e-115
-5.869e-117
1.00557e-111
1.03285e-117
5.71552e-119
-4.49226e-114
1.33996e-121
4.00432e-122
6.01982e-117
6.4864e-125
-1.18861e-125
2.20543e-122
4.26537e-128
-4.54367e-128
-3.46497e-123
3.00877e-131
-4.668e-131
3.5047e-126
7.48588e-135
-4.87684e-135
7.67478e-130
4.70608e-138
-2.50536e-139
4.82432e-133
2.61999e-141
-9.40582e-142
5.08192e-140
9.38911e-144
4.05324e-145
-4.03461e-140
3.80851e-147
8.47524e-148
-5.80347e-143
4.98302e-151
-1.55391e-152
1.99953e-149
-3.72958e-154
1.5e-154
7.50184e-10
9.55394e-09
-4.03405e-07
5.4822e-08
4.75161e-09
-6.24322e-08
4.17027e-08
4.92567e-08
5.69858e-08
1.08526e-08
3.88297e-10
-6.13157e-09
2.40135e-08
1.64194e-08
5.85173e-08
-8.77615e-08
-1.67079e-09
5.09672e-07
9.65392e-08
-2.71673e-08
7.6924e-08
8.62421e-08
2.64517e-10
-5.94823e-10
6.97997e-08
-8.04421e-09
-1.02048e-08
9.89751e-09
2.88771e-07
-5.09132e-08
3.65804e-07
1.24311e-08
-8.19496e-08
-4.89881e-08
2.74809e-08
2.10042e-09
-2.0188e-08
3.43572e-09
3.171e-09
1.17355e-08
-1.7435e-10
4.36383e-10
-1.39306e-10
-4.4611e-10
-3.8301e-10
-1.95408e-10
-4.30007e-10
5.01963e-10
4.25853e-10
5.34133e-10
-1.18874e-10
4.19343e-11
6.38007e-11
-8.98701e-11
-4.01724e-12
-2.81283e-16
2.3357e-08
1.45533e-14
2.3357e-08
-1.68018e-22
-1.01377e-20
2.13789e-21
3.10672e-19
1.30727e-19
7.82077e-20
5.63194e-19
7.44445e-27
1.13105e-24
6.59737e-26
1.76798e-27
-7.04402e-27
1.19739e-29
1.26406e-28
-5.9353e-28
8.51944e-30
3.19619e-31
-1.86295e-30
4.91639e-32
3.4974e-35
1.97415e-33
5.34463e-35
4.61275e-39
3.11839e-37
1.01209e-37
1.68086e-42
6.22123e-41
7.0321e-41
6.89826e-46
1.49143e-44
-6.61614e-44
2.85204e-49
5.12313e-48
-1.63931e-46
1.16738e-52
1.26919e-52
-5.86645e-50
4.80756e-56
5.44306e-55
2.12054e-53
1.9848e-59
9.21523e-59
-1.07618e-56
8.79568e-63
3.36484e-62
-5.96338e-60
4.50454e-66
1.57121e-65
2.57619e-62
1.81756e-69
8.382e-69
-3.07499e-66
7.93382e-73
7.07166e-73
3.16211e-70
3.24172e-76
-2.599e-76
4.52195e-72
2.51204e-79
2.32402e-80
-2.76382e-75
6.20926e-82
7.84912e-83
-6.551e-79
7.97152e-86
-8.989e-85
-4.5317e-83
5.09358e-89
6.62285e-90
8.39123e-85
1.66349e-91
1.69724e-92
-6.97126e-88
4.33705e-95
-2.29275e-95
-2.12822e-91
1.09502e-98
-6.26383e-97
-2.4037e-93
8.53141e-102
-9.95048e-102
-2.75432e-97
1.66679e-104
-1.29997e-106
-7.25647e-101
2.41929e-108
6.43765e-109
1.80906e-105
1.46258e-111
-6.11907e-111
-8.46556e-107
3.10534e-114
-5.00695e-115
-1.32254e-110
8.01195e-117
2.28204e-117
-4.80637e-113
2.56709e-120
1.52278e-120
-4.23968e-116
1.07402e-123
-1.42033e-124
-2.12459e-119
1.52801e-126
4.55177e-127
-4.23601e-122
4.71693e-130
2.94188e-131
-3.48828e-125
5.15908e-133
1.68776e-132
-4.0088e-128
5.01802e-136
-9.04175e-137
-7.18496e-132
1.28358e-139
5.16736e-142
-1.73083e-135
3.68654e-143
1.70532e-143
-5.23909e-140
2.10641e-146
1.53776e-146
-7.73602e-142
2.14681e-149
4.47195e-150
-1.30278e-145
-2.30517e-151
-3.03259e-148
-1.76296e-08
1.48875e-08
8.11111e-08
3.27496e-08
-1.42251e-08
-7.62554e-09
1.37165e-08
1.52515e-08
1.34753e-08
8.04603e-08
9.59917e-08
8.58689e-08
2.18563e-08
-2.22465e-08
-1.83179e-08
-7.05067e-09
-1.9046e-08
1.37549e-09
1.84342e-08
-2.98079e-08
-1.76705e-08
5.67533e-09
4.73919e-08
1.93817e-08
1.84209e-08
1.1132e-08
1.98615e-08
-9.19066e-08
-4.36102e-08
9.07993e-08
-1.0504e-07
1.17519e-08
1.39411e-08
1.41029e-08
1.20319e-08
-6.20965e-10
-2.83861e-08
5.80914e-09
-3.26924e-09
2.48862e-08
-3.13351e-09
1.76296e-10
-8.0608e-10
-1.47735e-10
2.51045e-10
-4.2282e-10
8.28568e-10
2.6698e-10
2.22715e-10
3.91279e-10
2.31485e-10
-1.46798e-10
2.81001e-12
3.0908e-08
1.85742e-11
3.09097e-08
6.40329e-23
7.16055e-20
-3.18058e-20
1.8884e-18
1.21727e-17
-9.62827e-18
1.90739e-17
-4.2619e-25
1.78721e-23
-8.21283e-25
2.14576e-27
1.19559e-27
-2.58103e-30
1.05932e-27
-4.88022e-28
5.65605e-29
3.82912e-30
-1.53346e-30
-1.233e-30
6.69713e-34
3.01121e-33
-9.43739e-34
6.94277e-38
4.88742e-37
-3.91688e-35
2.32666e-41
9.22853e-41
-3.62148e-38
9.4173e-45
1.55075e-44
1.59978e-42
3.89566e-48
4.83984e-48
-2.99917e-45
1.64064e-51
7.28151e-52
-9.06485e-51
6.95316e-55
3.16021e-56
-4.97562e-51
2.91355e-58
3.26468e-60
-1.36056e-55
1.31652e-61
-4.93958e-62
1.73109e-57
5.08157e-65
1.24788e-65
-5.5866e-61
2.16741e-68
9.7736e-70
4.23197e-65
9.87608e-72
-1.17186e-72
5.94558e-68
5.36621e-75
5.84906e-75
-2.601e-70
2.49837e-78
9.01488e-79
-5.41924e-74
3.45815e-81
-7.53658e-83
1.18521e-76
7.41635e-84
1.41906e-85
-5.63416e-80
2.46169e-87
-9.9915e-87
-3.18427e-82
1.67043e-90
-1.39528e-90
-2.85894e-86
7.90184e-94
8.42885e-95
-1.07968e-89
1.56976e-96
-1.06875e-99
-9.38322e-92
1.70579e-100
-7.18852e-102
-3.74708e-98
6.14236e-104
-3.9762e-104
-7.69987e-100
7.78309e-107
8.98699e-108
-1.82282e-102
2.1734e-109
-1.32825e-110
2.04728e-105
2.53617e-113
-1.93532e-113
-2.16545e-108
7.36689e-117
6.68879e-118
2.93393e-117
3.29022e-120
2.40119e-119
7.94216e-115
1.9056e-123
9.05823e-123
4.38012e-118
5.08915e-126
-1.47e-125
1.31869e-120
1.74956e-128
-4.18377e-128
-1.2822e-123
1.21342e-131
1.41341e-132
-3.7886e-127
2.78923e-135
-1.27358e-135
2.21556e-130
4.2902e-138
-3.70353e-139
-5.53856e-135
2.30634e-140
2.13702e-141
-4.33801e-137
3.51573e-144
2.37665e-144
-3.61356e-140
2.33325e-147
7.13785e-148
-1.54119e-143
6.12636e-152
-6.3043e-146
1.58836e-08
-1.04558e-08
1.43214e-08
-1.4602e-08
-1.52388e-08
1.60309e-08
3.83673e-08
2.07411e-08
1.20457e-08
8.03377e-09
1.28329e-08
1.08403e-08
-5.44938e-10
1.98613e-09
-1.00196e-08
-4.57085e-08
-3.73556e-08
5.23578e-08
6.53847e-08
-2.84537e-08
-4.202e-08
-2.89834e-08
1.22627e-07
6.12296e-08
2.53195e-08
-7.94943e-09
-3.58644e-09
1.19505e-08
2.33796e-09
1.03748e-09
3.14512e-08
-2.64191e-10
-1.23309e-09
-3.04283e-08
-1.03539e-09
7.64665e-10
-9.29695e-10
-1.32368e-11
-2.07881e-10
-1.28725e-09
7.21269e-10
1.7325e-10
1.25523e-10
1.92937e-10
1.75738e-10
-2.66083e-10
-3.16252e-12
6.27808e-08
6.30294e-11
6.27861e-08
-3.49979e-23
7.37499e-20
-7.476e-20
3.95612e-18
8.81982e-18
2.65456e-18
7.52395e-18
-5.14364e-25
1.25555e-23
-4.275e-24
4.99023e-27
2.91304e-28
-3.58591e-30
8.61087e-28
-3.0049e-28
8.21681e-30
2.9894e-30
-2.08175e-30
-1.5539e-29
5.34779e-34
-5.60802e-35
1.22959e-32
5.49636e-38
-5.67972e-39
-2.81452e-35
1.82799e-41
-5.6423e-42
-4.48899e-38
7.6772e-45
-2.81077e-45
-1.92859e-42
3.3881e-48
-9.52472e-49
-8.96164e-45
1.45007e-51
-2.79458e-52
1.91136e-48
6.8734e-55
6.59832e-55
-2.31229e-50
2.60083e-58
-2.67853e-58
1.15676e-53
1.05263e-61
4.53974e-62
1.8924e-57
5.71634e-65
4.67816e-66
-6.10201e-61
4.91294e-68
5.43581e-69
-1.06877e-63
4.01497e-71
-3.08435e-73
-2.62861e-67
1.2726e-73
1.45538e-74
-5.23686e-70
1.29668e-77
1.30856e-78
-4.83303e-75
7.60114e-81
-7.97957e-83
-2.42232e-76
2.67627e-83
1.30031e-84
-1.79128e-79
5.1123e-86
1.12907e-86
4.49991e-84
1.40451e-89
1.02367e-89
-1.25788e-85
2.77999e-93
-1.32002e-95
4.00069e-89
1.09394e-96
7.29134e-98
-6.45142e-93
8.30526e-100
7.64089e-101
-1.39179e-94
7.18007e-103
3.42273e-104
-1.2095e-98
1.77277e-106
8.34757e-108
3.72845e-102
1.70061e-109
-1.44437e-110
-9.55124e-106
1.50395e-112
2.17723e-113
-1.25742e-107
4.71363e-116
-1.91907e-118
5.82608e-112
8.63769e-119
-3.95467e-120
4.29164e-114
8.30442e-122
-3.0753e-123
1.23531e-117
1.74355e-124
-5.18952e-126
-4.14446e-120
3.73932e-128
3.97167e-129
-3.54026e-123
1.23431e-131
2.7945e-132
8.14835e-128
6.03136e-135
9.74535e-137
-1.00335e-131
4.63083e-138
-2.0421e-141
-3.53412e-134
9.00905e-142
7.23799e-143
1.52419e-142
3.28089e-145
4.42008e-147
1.46842e-141
1.25176e-148
5.26538e-150
-9.22003e-146
5.17841e-153
4.34175e-152
-8.60871e-09
-5.59674e-09
-1.47217e-08
-1.2281e-08
4.70518e-08
1.23656e-08
8.55563e-08
8.64673e-08
1.47094e-07
8.28064e-08
1.428e-07
2.90617e-09
2.63245e-08
3.39275e-08
2.14151e-08
-9.45558e-09
-9.55302e-09
-2.97707e-08
-4.64601e-08
-4.01955e-08
-3.94718e-08
4.34991e-08
-4.14518e-08
1.97523e-08
1.53459e-07
-4.40149e-08
-4.824e-08
-4.65009e-08
4.66613e-08
7.96882e-09
4.31063e-08
-9.84187e-08
1.15923e-08
3.07616e-10
2.31924e-08
-3.06135e-09
-6.27134e-09
-1.67377e-08
-8.42265e-10
-8.53844e-10
9.55667e-10
-3.71679e-10
1.56988e-09
4.87691e-11
-4.89328e-10
-1.66457e-11
1.69379e-10
1.41394e-11
7.08409e-11
-5.89288e-11
-5.59044e-12
2.21663e-08
1.94965e-11
2.21645e-08
-2.92864e-22
1.08445e-21
-1.06903e-20
2.93031e-18
2.26266e-20
-2.19155e-18
3.49776e-19
-1.07644e-26
2.79355e-25
-4.18772e-25
2.95304e-27
-1.19133e-27
-3.47854e-30
1.60066e-28
-5.83048e-29
-2.08551e-31
2.82089e-31
-1.36149e-31
1.3742e-32
3.00633e-35
-2.25935e-35
-1.30369e-34
4.04331e-39
-3.77583e-39
-2.5323e-38
1.47525e-42
-1.12825e-42
9.96312e-42
6.04249e-46
-2.99434e-46
2.50701e-45
2.49298e-49
-7.98307e-50
-2.70967e-47
1.02958e-52
-3.51703e-53
-2.63582e-50
4.43838e-56
-7.57043e-57
-7.24658e-53
1.96421e-59
-2.64333e-60
-1.19145e-55
7.68733e-63
-5.33688e-64
-8.29828e-60
3.26093e-66
-1.27991e-67
1.79615e-63
1.40289e-69
-3.68504e-71
-7.03974e-68
6.63788e-73
5.29754e-75
-2.78411e-69
2.36842e-76
-9.7835e-78
-2.34865e-73
1.16879e-79
-1.50728e-80
-7.85856e-76
1.8169e-82
-8.46928e-84
-1.14914e-78
3.9262e-85
1.889e-86
-4.37637e-81
3.79171e-89
-3.05923e-91
6.48625e-86
2.12404e-92
-2.39335e-93
2.35837e-89
3.26706e-95
-4.44113e-97
-6.41763e-92
4.55731e-99
-3.09923e-100
-1.30611e-101
3.13335e-102
1.31767e-103
2.94995e-97
1.84483e-105
-7.12875e-107
-1.72774e-100
1.77462e-108
2.79982e-109
1.60108e-103
1.163e-111
1.45573e-113
1.56668e-107
3.37231e-114
-2.45904e-116
-4.5889e-110
1.627e-117
3.13325e-119
-1.79578e-113
1.20876e-120
-4.87356e-122
-3.56168e-116
2.81166e-124
3.36608e-127
-4.5492e-120
2.43515e-127
-7.73027e-129
-3.11514e-122
1.09136e-130
-1.47214e-131
-1.06762e-125
6.3793e-134
3.78274e-135
2.84241e-129
4.22877e-137
-6.29964e-138
-5.78395e-132
6.38912e-140
1.62763e-142
-5.5384e-136
3.90594e-142
5.62245e-145
-8.51462e-139
2.37031e-146
-2.84496e-148
3.76273e-147
2.4524e-149
-3.45336e-152
1.42111e-150
1.10187e-152
-3.31661e-148
2.83763e-08
1.40904e-08
-1.3067e-08
-1.49542e-08
1.02648e-07
5.82565e-08
4.24405e-08
3.88382e-08
5.98158e-08
-8.01187e-09
-1.47375e-07
3.43515e-07
-6.4176e-08
1.85505e-07
-4.96356e-08
-4.80648e-08
-3.77026e-08
-4.29597e-08
3.58972e-08
6.27835e-08
1.18374e-08
1.70634e-08
1.43557e-08
-4.40776e-08
4.40085e-08
-1.33069e-08
-4.16072e-08
-1.17413e-08
-3.60596e-08
-4.10712e-09
-9.7138e-09
-1.09663e-08
2.15094e-09
3.79182e-09
1.43871e-08
-2.0434e-10
-2.8239e-09
-1.74029e-08
9.63151e-10
-4.77502e-10
1.37286e-09
-4.45681e-11
9.91982e-10
-1.77355e-13
2.22538e-16
-1.26131e-08
1.62595e-13
-1.26132e-08
-4.303e-23
-5.91573e-23
6.15924e-22
1.41999e-20
4.58498e-21
-1.95093e-20
1.04642e-20
2.58441e-26
-1.29601e-26
1.13314e-26
4.31884e-26
-6.84254e-28
2.45127e-29
1.63409e-28
-7.13958e-29
2.4015e-29
2.84661e-32
-3.55895e-32
1.06808e-31
1.56448e-36
-1.6631e-36
2.7976e-35
4.9998e-40
-3.86662e-40
4.23366e-39
2.02158e-43
-9.7511e-44
1.22988e-41
8.26355e-47
-3.83705e-47
4.24785e-44
3.39876e-50
-5.14899e-51
3.68344e-47
1.41219e-53
3.01546e-56
-4.89767e-51
5.82719e-57
-6.81707e-58
3.11447e-53
2.42565e-60
-2.24624e-61
1.17145e-56
1.08156e-63
-5.43116e-65
2.39444e-61
4.41577e-67
-9.36752e-70
-2.50556e-63
1.69629e-70
-1.91672e-72
-4.81321e-67
1.01569e-73
-7.33857e-76
-7.69017e-72
1.61998e-76
5.89067e-78
-8.54799e-73
5.61297e-80
1.33876e-81
-9.49579e-76
1.21442e-83
-1.9647e-85
-6.57669e-79
1.40196e-86
6.35433e-89
7.07115e-87
8.36702e-89
-6.50728e-93
-2.73033e-85
6.48658e-93
-5.01876e-95
4.09976e-91
5.23172e-96
1.39694e-97
-8.73048e-92
2.90191e-99
4.53182e-100
-4.83132e-95
8.67067e-103
-4.65827e-104
9.5752e-98
1.15593e-105
-9.27633e-110
-6.10601e-101
2.57827e-108
1.93977e-109
1.96379e-104
3.15444e-112
2.21957e-113
1.32942e-107
2.95382e-115
-2.68076e-117
-4.84659e-111
2.24356e-118
2.48933e-121
-3.50099e-114
2.0745e-121
4.44606e-123
-1.24489e-117
6.27516e-125
-1.04324e-125
4.43921e-121
5.0722e-128
2.45276e-129
-1.13808e-123
3.9006e-131
7.94145e-132
-9.39847e-126
1.77208e-134
2.42951e-136
-2.40228e-130
7.67098e-138
1.89723e-139
-2.81598e-132
2.20501e-141
1.4104e-142
-1.07671e-138
8.419e-145
-3.3015e-147
2.66498e-145
3.25561e-148
-3.16406e-149
6.89333e-149
1.41541e-151
-2.82144e-152
6.42384e-152
5.43175e-157
-3.14258e-149
3.51432e-08
-1.09537e-08
4.91983e-08
2.40838e-08
2.96504e-08
2.61823e-08
2.28411e-08
2.66624e-08
-4.87004e-08
-1.58999e-08
3.88056e-08
-1.90767e-08
4.0537e-09
9.13642e-08
9.03405e-09
9.78735e-08
2.07002e-08
4.21573e-09
1.46932e-08
1.03801e-08
-3.48843e-08
-4.22843e-08
6.94113e-08
1.51249e-08
-1.48713e-08
-1.26409e-08
1.9374e-08
-6.23916e-09
9.77561e-09
-4.77997e-09
-1.55428e-09
2.2381e-09
-2.63374e-10
6.86177e-10
-2.52586e-08
2.55489e-10
-2.47972e-08
2.07186e-16
1.33661e-17
3.22594e-08
3.22594e-08
-1.15368e-18
2.52834e-16
2.78085e-16
2.62159e-16
2.79456e-24
-4.73766e-22
2.011e-23
1.00615e-21
-5.78788e-23
-2.08929e-21
2.42762e-21
4.52405e-26
-4.79541e-26
-1.86065e-26
4.16951e-28
-7.41289e-28
5.12216e-30
1.64461e-31
-5.1031e-30
1.26699e-30
1.60744e-34
-5.9219e-33
-6.63869e-35
5.22381e-38
-1.48424e-36
2.39837e-38
1.14758e-41
-2.55977e-40
-2.38296e-40
4.3862e-45
-4.99424e-44
-5.85358e-43
1.84192e-48
-1.60252e-47
-9.1875e-47
7.77172e-52
-4.9663e-51
-2.76506e-50
3.27628e-55
-1.16072e-54
-1.60483e-52
1.37206e-58
-3.85118e-59
7.47548e-56
5.74507e-62
-1.50645e-61
2.6571e-59
2.40737e-65
-2.76362e-65
2.58391e-62
1.00366e-68
-1.00496e-68
1.04482e-66
4.60617e-72
-2.94367e-73
-2.2938e-69
2.2656e-75
2.52989e-76
-1.32616e-71
7.89589e-79
-3.86539e-79
-1.86268e-76
3.27825e-82
1.52306e-83
-1.32758e-78
1.38185e-85
-7.04568e-86
-1.6834e-82
5.83547e-89
-1.67276e-88
1.26446e-84
7.11589e-92
-2.78869e-92
-7.17807e-89
2.35228e-94
3.75867e-96
-1.86859e-90
1.56972e-98
-4.09567e-98
6.63719e-95
5.18923e-102
-7.80721e-101
-2.64183e-97
4.91031e-105
-4.28817e-105
-1.07438e-103
1.696e-107
-3.65541e-109
-1.17897e-103
1.94588e-111
-2.46343e-111
-1.7701e-106
9.9745e-115
7.20843e-115
-4.80241e-110
2.6201e-118
-3.21214e-118
-6.56743e-114
2.33049e-121
-1.63443e-120
4.021e-122
8.29564e-124
2.34849e-125
-5.09649e-120
5.42759e-127
-1.46486e-127
-7.5198e-123
7.57168e-130
2.32697e-130
-1.65743e-125
1.49062e-133
-1.21229e-132
-3.93235e-128
6.18773e-137
-5.86426e-137
-6.73127e-132
3.09694e-140
-9.84402e-141
1.76788e-135
2.8475e-143
-4.99693e-143
-1.72608e-138
6.97396e-146
4.55332e-147
-4.85944e-142
7.05255e-149
-5.40974e-149
-4.84469e-145
6.80005e-152
-1.50152e-152
-7.73564e-148
-4.27005e-156
4.19355e-155
8.40192e-09
-4.90952e-09
-3.11736e-08
3.18536e-08
3.72104e-08
4.89792e-08
-3.37859e-08
4.31467e-08
-3.75696e-08
2.00273e-08
1.57918e-08
6.79183e-08
4.99851e-08
3.94321e-08
3.60195e-08
4.71997e-08
4.79468e-08
3.54589e-08
7.0298e-09
1.78595e-08
6.81785e-08
2.48338e-09
3.44661e-08
3.35296e-08
3.33442e-08
-1.58591e-08
1.91698e-08
-1.2421e-07
-7.734e-08
-1.40679e-08
-1.33911e-08
-1.4003e-08
-1.47481e-08
-1.00396e-09
2.55997e-09
6.35195e-09
1.1547e-09
-1.09489e-08
-1.3238e-10
6.30359e-11
1.79476e-08
-4.86115e-11
1.80016e-08
2.49469e-22
-4.34193e-19
1.87712e-16
1.33107e-17
-1.80019e-16
-1.42824e-17
-2.24552e-18
-1.71283e-18
-8.25319e-18
-1.70797e-18
-2.74403e-24
-9.9696e-24
1.18184e-27
-4.01583e-28
5.96397e-28
-7.88616e-30
8.49465e-30
-2.00521e-31
1.83233e-33
-1.83192e-33
1.51978e-37
1.4084e-36
4.61449e-41
3.68855e-41
1.87214e-44
-8.29086e-43
7.75851e-48
-5.1585e-47
3.21838e-51
6.84857e-49
1.33993e-54
3.2226e-52
5.57542e-58
-5.25955e-55
2.2906e-61
-3.52262e-59
9.44953e-65
-3.50523e-62
3.89152e-68
-2.56517e-65
1.61047e-71
-1.82304e-69
6.70329e-75
5.91515e-73
2.90219e-78
-1.11172e-75
1.34284e-81
-4.15647e-79
8.53312e-85
-5.45871e-81
1.11609e-87
1.41575e-84
2.69974e-91
1.06606e-88
2.01966e-94
7.95683e-92
2.48978e-97
-9.22568e-94
1.12963e-100
-2.19435e-96
5.72825e-104
-1.01215e-100
1.87894e-107
-1.40265e-103
2.41546e-110
-4.01139e-106
2.3372e-113
-1.01207e-109
1.42943e-116
2.89567e-112
4.97624e-119
-1.41289e-115
4.33093e-123
-3.82933e-121
1.1825e-126
-2.14821e-123
1.87822e-129
2.09372e-125
1.35113e-131
-7.50068e-128
9.84495e-136
-7.33934e-132
5.90986e-139
2.85061e-134
7.58902e-142
-2.51628e-137
1.82735e-145
1.50903e-141
1.69027e-148
-6.12898e-145
3.20807e-152
2.4584e-149
8.25649e-151
-2.06012e-07
-1.77475e-08
-2.7581e-09
-2.23128e-08
-2.17244e-08
-2.50984e-08
-3.02764e-08
-1.55345e-07
-1.97529e-08
4.85163e-07
-1.29786e-08
-8.94667e-09
-2.03485e-08
-8.24204e-09
-5.64537e-08
4.75408e-09
1.95538e-07
-5.93352e-09
2.68905e-07
-2.065e-07
-7.39416e-07
8.0093e-07
2.90213e-08
2.38071e-08
2.43677e-08
2.67344e-08
-2.28481e-08
2.93772e-07
5.0616e-09
-4.22112e-08
2.53418e-07
-5.81366e-07
1.59819e-08
-1.72988e-08
1.60055e-08
8.82204e-09
-7.58816e-08
-9.18439e-10
-6.359e-09
1.20126e-09
8.36834e-08
-2.81612e-10
-2.08939e-11
-3.03292e-11
4.82562e-08
4.82266e-08
2.47732e-21
4.21509e-18
3.52436e-19
-1.27701e-17
8.46791e-18
-1.17489e-17
7.06832e-18
5.1296e-18
4.25685e-18
5.1275e-18
4.57171e-24
8.38383e-22
8.26991e-24
1.23815e-26
2.69719e-24
9.8144e-29
5.81259e-27
1.6782e-26
-9.44117e-31
1.29883e-28
2.12737e-29
4.29452e-31
2.27493e-31
1.5947e-32
-1.48746e-33
5.16999e-35
1.18319e-35
4.64832e-36
1.35603e-38
5.10017e-39
1.01548e-39
8.92118e-42
4.69266e-42
2.87982e-42
6.61148e-45
4.33249e-46
-3.76006e-47
4.7339e-48
4.28128e-49
-2.81283e-49
3.34461e-51
2.72804e-51
-1.99481e-51
2.36361e-54
8.18501e-56
-6.70793e-55
1.67009e-57
-1.64008e-59
3.04243e-58
1.17842e-60
-1.13568e-62
-4.36451e-61
8.30986e-64
-9.48668e-65
1.32705e-64
5.85291e-67
1.28434e-68
2.28197e-68
4.11806e-70
-1.22183e-70
6.00192e-71
2.89537e-73
-4.55118e-74
-3.16107e-74
2.03355e-76
5.7474e-77
7.97223e-77
1.42591e-79
1.70571e-81
9.92587e-81
9.98045e-83
-5.97507e-84
3.23965e-84
6.97709e-86
-4.11664e-88
-2.14161e-87
4.86766e-89
2.69542e-89
-2.22995e-90
3.39292e-92
1.30285e-92
3.82759e-95
2.36298e-95
-7.09495e-96
-1.06799e-95
1.64251e-98
8.47027e-99
2.44062e-99
1.14047e-101
-1.8777e-103
2.4289e-103
7.90067e-105
6.59811e-106
3.75107e-107
5.45896e-108
9.97565e-109
1.89408e-108
3.76866e-111
-5.0073e-113
7.17225e-113
2.59906e-114
7.85609e-116
-1.69451e-120
1.78924e-117
-2.26858e-119
1.03368e-118
1.22983e-120
9.32012e-123
8.82416e-123
8.43877e-124
7.78238e-125
-5.72554e-125
5.77887e-127
-5.89666e-128
9.28658e-127
3.94633e-130
2.37923e-130
4.01589e-132
2.68985e-133
-4.67464e-135
6.36108e-134
1.82989e-136
4.46858e-137
1.73183e-136
1.24369e-139
-1.50037e-141
1.42191e-143
8.4327e-143
-4.63112e-145
3.06247e-144
5.43826e-146
-1.23121e-148
1.89438e-147
6.15603e-150
4.5424e-150
-2.45965e-09
-5.31053e-09
-2.43203e-08
-6.45535e-09
1.35408e-09
-1.85653e-08
2.9147e-09
1.24178e-08
7.27643e-09
1.5493e-09
-3.09102e-07
-3.87386e-07
-3.3799e-07
-1.99123e-07
-4.64796e-09
-1.55332e-08
1.17152e-08
2.55825e-08
4.55292e-08
1.71963e-08
2.57958e-08
-6.75135e-08
-4.00203e-08
-6.2402e-08
-5.97376e-08
-1.58888e-08
2.05514e-09
-3.17501e-07
-7.59337e-09
-2.25543e-08
-8.40505e-09
-1.31234e-08
5.99705e-08
2.5877e-08
6.1293e-09
6.40927e-09
1.29751e-08
-2.95577e-08
9.43682e-09
5.40226e-08
-1.61095e-08
-1.46025e-08
-4.23601e-08
-2.27616e-08
-2.5848e-08
1.01045e-08
-8.85136e-09
2.73928e-09
-3.87135e-09
1.07916e-07
-2.76874e-08
5.61313e-08
1.58327e-07
2.90341e-09
5.6219e-09
-3.72051e-09
-1.61841e-07
7.10984e-08
2.12641e-09
4.73513e-08
-4.27816e-09
6.99741e-09
-1.22516e-07
2.71074e-10
1.01545e-10
-1.52662e-10
9.12131e-11
-5.9456e-11
-3.45937e-11
1.55809e-17
5.01146e-18
-8.48047e-19
5.485e-18
8.1707e-19
1.63461e-17
1.10715e-17
5.63063e-18
-1.65507e-23
-7.38087e-22
-1.33931e-23
-2.92959e-20
-1.84757e-20
-2.97398e-20
-1.83576e-20
8.35964e-24
1.62335e-25
-7.90903e-27
6.76261e-26
1.48688e-25
-3.92362e-30
5.89861e-30
4.05029e-27
1.17765e-32
2.33816e-33
9.15108e-30
-1.67751e-34
1.75744e-36
1.61514e-33
-3.58614e-38
9.08872e-40
2.71967e-37
-1.06591e-41
6.27324e-43
1.08175e-40
5.13302e-44
4.59668e-46
6.61228e-44
1.48189e-47
3.27568e-49
9.89255e-48
-1.51616e-49
2.31272e-52
1.45744e-50
-1.07047e-52
1.63661e-55
4.37004e-54
7.93572e-57
1.15743e-58
2.43978e-57
-2.15887e-59
8.17216e-62
-6.09045e-62
-5.4766e-64
5.78126e-65
3.56356e-63
4.56702e-66
4.07299e-68
2.23781e-66
-1.06191e-68
2.86292e-71
-3.65414e-70
1.30916e-72
2.01473e-74
5.35075e-74
2.14259e-75
1.4174e-77
-3.98849e-76
2.19732e-78
9.93851e-81
-4.64604e-80
3.33498e-82
6.955e-84
-3.58396e-83
2.41435e-85
4.86682e-87
-1.71104e-85
2.54377e-87
3.4041e-90
3.79443e-91
3.6197e-91
2.37703e-93
2.18827e-94
3.15372e-94
1.65882e-96
-1.51928e-95
9.78431e-98
1.15497e-99
-2.66293e-98
-5.08163e-100
8.01455e-103
1.08515e-103
3.36051e-104
5.55798e-106
-4.50739e-105
2.59846e-107
3.84752e-109
-1.36742e-108
3.65238e-110
2.65894e-112
2.82251e-112
1.29826e-113
1.83335e-115
-6.45805e-115
3.4369e-116
1.26127e-118
1.09663e-119
-1.14827e-123
8.67117e-122
-6.34991e-121
9.36474e-123
5.94707e-125
-1.58014e-124
6.78321e-126
4.0731e-128
1.17469e-127
2.00387e-128
2.7885e-131
-1.89956e-130
1.13952e-131
1.90218e-134
-1.23111e-134
-2.97263e-135
1.29517e-137
-1.49187e-137
1.39321e-137
8.80697e-141
-8.63611e-140
1.26353e-141
5.96571e-144
2.09539e-145
1.86013e-147
3.84931e-147
4.11965e-148
5.2997e-151
1.28582e-149
-6.60766e-157
2.81316e-08
-1.93266e-09
-8.53162e-08
5.54504e-08
-9.5345e-09
3.20889e-07
3.46705e-08
2.81032e-08
-4.55957e-09
9.95195e-09
-2.54675e-08
-5.40348e-08
-9.08325e-08
1.32141e-09
1.27206e-08
1.88504e-08
-5.4197e-08
-6.93761e-08
-3.41284e-08
-2.13934e-08
-2.84492e-08
2.37817e-07
-1.26799e-07
-2.40566e-08
3.09198e-09
-1.46069e-09
-1.81109e-08
1.98227e-07
3.42008e-07
4.99755e-08
5.7228e-07
1.07315e-07
1.08952e-09
-3.49829e-09
1.5397e-09
1.08153e-09
-1.07914e-07
6.73779e-10
-9.28523e-11
3.6291e-10
-6.61368e-10
6.4045e-11
-1.14622e-10
2.53025e-15
-1.11676e-17
5.44733e-18
3.52441e-18
-3.94448e-15
2.79619e-15
-3.31501e-15
-6.33717e-17
6.39795e-16
6.9901e-16
-1.5384e-16
-1.56871e-16
-1.19397e-24
-3.28235e-22
-1.45159e-22
2.53012e-20
-1.63116e-19
2.2202e-20
-1.49439e-19
-1.85216e-25
-2.05733e-24
1.40452e-26
3.88211e-25
1.16696e-26
-3.07762e-29
1.99265e-26
2.45913e-27
-1.1771e-29
2.10418e-29
2.76357e-29
-6.0495e-32
1.76495e-33
2.08479e-32
-4.64223e-36
6.05492e-37
4.94099e-36
-7.92284e-39
4.48246e-40
1.95838e-39
-1.80179e-42
3.16364e-43
9.57287e-43
-5.16038e-45
2.17437e-46
3.47225e-46
-1.04488e-46
1.4908e-49
2.51129e-49
-7.63602e-50
1.02296e-52
4.34729e-53
4.77578e-55
7.01302e-56
1.40655e-56
-1.97437e-56
4.80085e-59
6.8838e-60
1.53494e-60
3.28381e-62
-3.82892e-63
1.65706e-62
2.24192e-65
3.3208e-66
-3.55987e-66
1.52756e-68
3.1197e-69
-2.82727e-70
1.04064e-71
-5.01052e-73
8.75532e-74
7.07607e-75
5.85983e-76
1.20995e-76
4.8016e-78
2.87604e-78
-7.89374e-80
3.26001e-81
7.39816e-82
-9.4697e-83
2.2109e-84
-5.23391e-85
9.12381e-85
1.4966e-87
3.40879e-88
-4.24001e-94
1.01295e-90
-4.41085e-92
-1.47532e-97
6.83794e-94
2.32076e-94
1.01555e-96
4.60314e-97
9.70211e-98
-1.72515e-98
3.09654e-100
-2.03617e-101
1.24412e-100
2.08205e-103
-7.3575e-105
4.92918e-105
1.39707e-106
2.52337e-107
2.00993e-108
9.36295e-110
-3.56022e-111
-1.65742e-110
6.26277e-113
9.88803e-114
1.35322e-114
4.17837e-116
2.48277e-116
-5.6788e-117
2.78572e-119
-2.05985e-120
-9.97751e-120
1.85415e-122
5.08886e-124
-1.5459e-123
1.23345e-125
-5.01595e-126
2.69959e-126
8.20005e-129
-4.59991e-130
-2.5091e-130
5.43796e-132
3.23645e-132
4.47253e-133
3.59863e-135
1.31206e-135
-5.9532e-140
2.3772e-138
3.45694e-139
1.09839e-139
1.56697e-141
2.69524e-142
5.71145e-143
1.00286e-144
7.45965e-147
2.00504e-146
-1.8111e-148
4.1689e-149
-2.49121e-08