/*--------------------------------*- C++ -*----------------------------------*\
| =========                 |                                                 |
| \\      /  F ield         | OpenFOAM: The Open Source CFD Toolbox           |
|  \\    /   O peration     | Version:  5.0                                   |
|   \\  /    A nd           | Web:      www.OpenFOAM.org                      |
|    \\/     M anipulation  |                                                 |
\*---------------------------------------------------------------------------*/
FoamFile
{
    version     2.0;
    format      ascii;
    class       volScalarField;
    location    "4";
    object      alpha.water;
}
// * * * * * * * * * * * * * * * * * * * * * * * * * * * * * * * * * * * * * //

dimensions      [0 0 0 0 0 0 0];

internalField   nonuniform List<scalar> 
8941
(
1.09782
0.960789
1.00418
0.9793
0.999026
1.02395
0.292856
-1.54925e-21
-1.61562e-20
9.82503e-21
2.17582e-18
7.11187e-20
1.85009e-22
3.35441e-26
3.56906e-30
1.25344e-33
5.18782e-37
2.2933e-40
1.00341e-43
4.03893e-47
1.97068e-50
8.24787e-54
3.68103e-57
1.35684e-60
8.34055e-64
1.06859e-66
3.60873e-70
6.50245e-74
3.36486e-76
5.63362e-80
5.8068e-83
8.71998e-87
1.51289e-89
5.50105e-92
2.15199e-95
1.46196e-98
4.35171e-102
2.11302e-104
4.36664e-108
3.72333e-112
5.73023e-115
1.16827e-117
1.25178e-120
3.07755e-123
6.26696e-127
5.53541e-130
8.79708e-134
1.2776e-137
3.72237e-139
2.40389e-142
1.08405
0.84966
1.00428
1.01776
0.961356
1.02726
0.668453
-2.82775e-19
-6.83226e-20
1.51098e-16
3.93639e-18
8.58253e-21
3.85641e-23
2.28839e-26
1.96811e-30
5.1287e-34
2.10132e-37
8.92244e-41
3.81232e-44
1.58259e-47
6.70936e-51
2.85142e-54
1.36416e-57
6.04213e-61
2.28678e-64
1.15513e-67
6.38151e-71
2.11353e-74
1.43207e-77
6.27573e-81
3.2537e-84
8.77397e-87
1.19846e-90
2.49118e-93
6.6795e-97
7.4164e-100
3.22399e-103
2.72989e-107
1.00502e-108
9.08227e-112
1.13692e-115
1.13863e-118
1.86789e-122
3.14063e-126
7.12231e-129
7.53119e-132
5.83967e-136
1.41953e-139
5.96766e-143
8.54292e-144
1.00199
1.04511
1.02217
0.998172
0.973664
0.997703
1.00027
-7.9402e-16
-1.36991e-18
-6.86485e-37
1.90361e-17
1.56594e-18
4.71533e-21
3.88933e-25
3.40708e-29
1.24619e-32
5.24358e-36
2.51633e-39
1.08448e-42
4.02992e-46
1.88244e-49
7.5742e-53
4.46946e-56
1.29177e-59
1.04766e-62
9.04468e-66
5.66157e-69
6.13047e-73
2.41746e-75
3.31819e-78
2.4951e-82
4.22099e-86
4.39673e-87
5.68535e-90
4.80817e-94
1.7906e-97
7.20939e-101
8.29581e-105
1.09126e-106
5.56984e-110
2.37326e-113
1.02174e-116
1.35151e-119
1.16494e-123
1.85037e-126
9.41012e-131
1.23276e-132
1.62645e-135
9.50308e-140
9.3055e-144
1.01562
1.01769
1.02232
1.04831
1.00121
0.996082
0.999804
0.000633983
-8.88846e-19
-1.26983e-21
4.74895e-18
7.76852e-19
1.29714e-20
1.39325e-23
1.07812e-27
1.89664e-31
7.48354e-35
3.3439e-38
1.3444e-41
5.59602e-45
2.50738e-48
9.96117e-52
9.38775e-55
3.76074e-58
1.68068e-61
7.29041e-65
1.66324e-68
1.01526e-70
3.65329e-74
2.99843e-78
2.19986e-80
1.84964e-83
2.98395e-87
7.38307e-91
3.44902e-93
8.17085e-97
2.74869e-100
4.23814e-103
1.46142e-105
1.15213e-108
1.73796e-112
4.00603e-115
1.34532e-118
1.18976e-121
1.61639e-124
6.3235e-128
3.97314e-132
3.94824e-135
3.18499e-138
9.02526e-141
1.02341
1.05946
1.00919
0.976903
0.936274
0.997746
1.00189
0.310922
-8.00951e-18
-2.50536e-20
1.63101e-17
4.585e-18
1.10583e-19
1.96086e-22
2.28846e-26
3.16447e-30
1.11105e-33
4.79095e-37
2.03341e-40
1.08441e-43
3.58599e-47
2.58915e-50
6.98488e-54
3.70158e-57
1.37471e-60
1.30817e-63
4.92781e-67
5.06794e-70
1.61077e-72
7.49411e-76
7.05766e-79
7.58352e-83
3.18969e-85
5.0128e-89
5.58477e-93
5.35605e-96
3.81449e-98
1.19323e-101
8.0706e-106
8.80003e-109
4.39959e-112
7.92743e-115
2.62304e-117
3.95465e-120
1.31457e-123
2.61757e-127
2.5283e-129
1.22037e-132
1.02373e-135
1.34407e-139
1.00129
0.970123
1
1.20397
1.01158
0.982678
1.00186
0.485102
-3.09728e-18
-2.3586e-20
1.23066e-17
3.60575e-18
8.70699e-20
1.56792e-22
1.84161e-26
2.4055e-30
8.89538e-34
5.58489e-37
1.94103e-40
1.44421e-43
4.5418e-47
1.67377e-50
6.05233e-54
1.27591e-56
3.62961e-60
2.08386e-62
6.0319e-66
5.93622e-70
2.932e-72
9.48271e-75
6.69268e-78
7.17228e-82
1.03719e-85
9.9613e-89
2.19327e-91
3.07193e-95
3.35015e-98
5.19544e-101
4.72636e-105
1.84789e-107
1.50921e-110
3.89658e-113
1.70009e-116
4.20809e-120
8.47391e-124
1.51767e-126
1.40367e-130
2.80257e-134
1.03032e-137
2.69608e-141
1.0108
1.00511
0.858856
0.987619
0.947277
1.01801
1.00367
0.179009
-3.12817e-19
-4.84874e-22
4.48196e-18
7.29426e-19
1.2008e-20
1.25293e-23
9.51885e-28
1.69853e-31
6.68704e-35
2.85761e-38
1.19996e-41
5.15522e-45
3.44881e-48
9.58025e-52
5.13444e-55
1.72895e-58
1.44686e-61
3.36745e-65
1.23632e-68
2.04359e-71
8.0772e-74
1.36584e-77
1.71103e-81
7.16645e-84
6.26944e-88
9.34614e-91
3.41237e-94
6.41135e-97
1.3517e-100
5.92563e-103
4.70545e-106
4.99324e-109
4.71481e-113
6.13191e-116
3.75442e-119
1.76286e-122
1.58203e-125
3.19539e-129
3.86444e-131
1.2807e-134
7.07934e-139
1.39083e-140
0.99403
1.00477
0.964707
0.900778
1.0259
1.02069
1.00175
-2.81722e-16
-1.05051e-18
-5.28066e-38
1.84097e-17
1.4977e-18
5.12302e-21
5.00769e-25
4.06297e-29
1.4392e-32
6.00792e-36
2.54501e-39
1.17833e-42
5.60717e-46
2.04188e-49
1.33005e-52
6.5301e-56
1.49098e-59
5.68644e-63
2.64833e-65
2.33875e-68
1.87974e-72
3.62805e-76
7.01596e-78
2.03058e-81
1.60022e-84
1.26849e-87
2.06933e-91
1.26138e-94
5.71555e-97
6.20343e-101
8.39609e-104
5.83872e-107
7.69838e-110
1.84535e-113
1.41607e-116
1.25383e-119
6.21849e-123
2.6755e-126
1.4999e-130
4.47457e-134
1.72975e-137
6.76711e-141
7.55987e-144
1.05463
0.833144
0.940095
1.01718
0.909207
0.985048
1.00004
-7.92291e-18
-4.45277e-20
1.30205e-16
6.72531e-18
1.79706e-20
3.47521e-23
2.44277e-26
3.11386e-30
7.54512e-34
3.08228e-37
1.3178e-40
5.68198e-44
2.40423e-47
1.0097e-50
4.36513e-54
1.81156e-57
7.75555e-61
6.21729e-64
1.45093e-67
5.81779e-71
2.61912e-74
1.13213e-77
5.22473e-81
3.55385e-83
5.20554e-87
6.86974e-91
2.20484e-94
2.16366e-96
5.54687e-100
4.16601e-103
3.79438e-107
7.6698e-111
1.00978e-112
1.11979e-115
2.15611e-118
5.56233e-122
1.25345e-125
9.65803e-129
3.21059e-132
1.23904e-134
1.57596e-137
2.37526e-140
2.0236e-144
1.01419
1.01739
1.04767
1.01553
1.00714
1.00966
0.704202
-2.23073e-19
-1.92335e-19
2.86537e-22
1.85374e-18
1.0534e-19
3.3216e-22
6.37281e-26
6.35812e-30
2.10946e-33
8.77134e-37
3.72718e-40
1.59159e-43
7.17975e-47
2.8906e-50
1.21462e-53
5.10779e-57
2.13316e-60
9.68528e-64
3.98036e-67
2.75573e-70
9.94232e-74
2.75297e-76
9.15355e-80
4.39527e-83
7.11071e-86
3.97628e-89
2.64817e-92
2.56598e-96
4.45488e-99
7.74611e-102
1.40547e-105
7.81395e-108
2.07203e-111
1.70732e-115
5.75196e-119
1.04747e-120
4.77291e-124
1.07426e-127
2.2545e-130
3.34355e-134
5.80507e-137
6.5005e-141
4.25907e-144
1.04486
0.925762
0.997249
0.939746
1.00134
1.01988
0.30803
5.18497e-13
1.23507e-15
6.0161e-18
5.16298e-18
5.3314e-19
6.69299e-21
8.88948e-24
1.84062e-27
5.60592e-31
3.96157e-34
2.97422e-37
2.15476e-40
1.54496e-43
1.10769e-46
7.93018e-50
5.66238e-53
4.03573e-56
2.86981e-59
2.03567e-62
1.44182e-65
1.01896e-68
7.18108e-72
5.05044e-75
3.54267e-78
2.47865e-81
1.7318e-84
1.20745e-87
8.40421e-91
5.8373e-94
4.04249e-97
2.79139e-100
1.92447e-103
1.32499e-106
9.10203e-110
6.23999e-113
4.26755e-116
2.91155e-119
1.98262e-122
1.34657e-125
9.12448e-129
6.17598e-132
4.17015e-135
1.66292e-138
1.10436
0.999895
1.00155
1.05597
1.01516
1.03588
0.667069
6.0514e-13
3.34952e-15
8.43163e-15
4.81587e-16
7.29852e-19
4.08332e-22
2.76532e-25
8.15588e-29
3.8651e-32
2.83192e-35
2.09885e-38
1.50993e-41
1.08422e-44
7.80233e-48
5.58028e-51
4.02665e-54
2.87532e-57
2.03452e-60
1.44497e-63
1.02821e-66
7.27126e-70
5.11668e-73
3.60239e-76
2.53887e-79
1.77905e-82
1.24694e-85
8.71931e-89
6.03557e-92
4.19126e-95
2.9067e-98
2.00762e-101
1.3847e-104
9.52371e-108
6.54019e-111
4.47712e-114
3.06243e-117
2.09312e-120
1.42208e-123
9.65703e-127
6.56262e-130
4.42781e-133
2.98665e-136
1.19366e-139
1.04527
1.05683
1.01193
0.945352
0.946897
1
1.00051
9.27458e-10
6.76458e-16
1.97916e-16
3.25258e-16
5.13503e-17
6.46872e-19
4.004e-22
3.43014e-26
1.50226e-29
1.11975e-32
7.94506e-36
5.52634e-39
3.83761e-42
2.663e-45
1.84487e-48
1.2753e-51
8.80462e-55
6.06287e-58
4.16722e-61
2.86066e-64
1.95883e-67
1.33867e-70
9.14795e-74
6.23943e-77
4.2481e-80
2.88927e-83
1.96006e-86
1.32519e-89
8.95462e-93
6.0419e-96
4.06765e-99
2.73464e-102
1.83401e-105
1.22735e-108
8.20173e-112
5.4726e-115
3.64607e-118
2.42626e-121
1.61166e-124
1.06807e-127
7.06389e-131
4.66189e-134
1.82391e-137
1.02355
1.02357
1.01243
1.02493
1.01478
0.998491
0.999534
0.00252483
1.08219e-13
1.41247e-16
3.85061e-17
7.55832e-18
3.19067e-19
1.61815e-21
6.57023e-25
9.67468e-29
5.40996e-32
4.03401e-35
2.89773e-38
2.0473e-41
1.44464e-44
1.01767e-47
7.14946e-51
5.02265e-54
3.51416e-57
2.45537e-60
1.71302e-63
1.19332e-66
8.31133e-70
5.75154e-73
3.97834e-76
2.74772e-79
1.8925e-82
1.30127e-85
8.94033e-89
6.12202e-92
4.1864e-95
2.8572e-98
1.94483e-101
1.32121e-104
8.96409e-108
6.08881e-111
4.11225e-114
2.77646e-117
1.86247e-120
1.25061e-123
8.37925e-127
5.6061e-130
3.74209e-133
1.47877e-136
1.02566
1.05074
0.999256
1.00159
0.994631
1.00465
1.00227
0.323698
1.01239e-12
1.34946e-15
1.25227e-16
8.44329e-17
6.17221e-18
5.54337e-20
3.93467e-23
4.98161e-27
2.16517e-30
1.61476e-33
1.1681e-36
8.23682e-40
5.79601e-43
4.07515e-46
2.85791e-49
2.00166e-52
1.39878e-55
9.75199e-59
6.79016e-62
4.71795e-65
3.26961e-68
2.26169e-71
1.56162e-74
1.07554e-77
7.39806e-81
5.07592e-84
3.47511e-87
2.37601e-90
1.62081e-93
1.10279e-96
7.49204e-100
5.08138e-103
3.44059e-106
2.32596e-109
1.56843e-112
1.05503e-115
7.0857e-119
4.75015e-122
3.17689e-125
2.1215e-128
1.41392e-131
5.57508e-135
1.15553
1.05783
0.834496
0.993035
1.01251
1
1.00244
0.486698
9.0047e-13
1.49516e-15
3.92636e-16
1.66861e-16
1.3208e-17
1.29434e-19
9.66813e-23
1.18819e-26
4.99523e-30
3.7231e-33
2.69091e-36
1.89442e-39
1.33032e-42
9.3372e-46
6.53921e-49
4.57102e-52
3.18822e-55
2.21833e-58
1.54236e-61
1.07008e-64
7.40638e-68
5.11741e-71
3.52539e-74
2.42261e-77
1.6641e-80
1.14077e-83
7.7983e-87
5.32281e-90
3.6254e-93
2.46423e-96
1.67273e-99
1.13301e-102
7.65815e-106
5.16865e-109
3.48064e-112
2.33781e-115
1.56764e-118
1.04891e-121
7.00192e-125
4.67033e-128
3.11103e-131
1.22643e-134
1.07638
1.00278
0.823831
1.00616
0.945834
1.01937
1.00292
0.185795
1.06569e-13
1.28305e-16
2.89693e-17
5.2247e-18
2.05084e-19
9.9865e-22
4.07461e-25
6.35723e-29
3.5428e-32
2.62158e-35
1.8719e-38
1.32051e-41
9.36691e-45
6.62846e-48
4.62651e-51
3.264e-54
2.28957e-57
1.58867e-60
1.10777e-63
7.72139e-67
5.37638e-70
3.76042e-73
2.58438e-76
1.7843e-79
1.23224e-82
8.48569e-86
5.88746e-89
4.00764e-92
2.73861e-95
1.8803e-98
1.28487e-101
8.68516e-105
5.89045e-108
3.9953e-111
2.70178e-114
1.82504e-117
1.22721e-120
8.24346e-124
5.61018e-127
3.71179e-130
2.48121e-133
1.06281e-136
1.0446
1.03388
1.24529
1.00751
1.01707
1.03419
1.0021
8.86211e-07
1.4067e-15
3.03392e-16
3.93091e-16
6.45562e-17
9.21283e-19
6.72764e-22
5.90967e-26
2.38825e-29
1.78181e-32
1.26812e-35
8.82904e-39
6.13661e-42
4.26297e-45
2.95546e-48
2.04445e-51
1.41239e-54
9.73871e-58
6.70025e-61
4.602e-64
3.15428e-67
2.15732e-70
1.47445e-73
1.00667e-76
6.8582e-80
4.66369e-83
3.16361e-86
2.14154e-89
1.44825e-92
9.77446e-96
6.58307e-99
4.42951e-102
2.97359e-105
1.992e-108
1.33226e-111
8.89394e-115
5.92468e-118
3.9419e-121
2.61736e-124
1.73322e-127
1.14642e-130
7.57738e-134
2.9684e-137
1.07906
0.991086
0.983639
1.00545
0.983413
0.934279
1.00025
1.40265e-10
6.77374e-15
6.84522e-15
7.811e-16
5.36422e-18
1.51423e-21
1.94117e-25
8.91121e-29
6.08433e-32
4.22104e-35
2.85049e-38
1.92204e-41
1.31337e-44
9.0428e-48
6.23179e-51
4.29221e-54
2.94063e-57
2.11189e-60
1.42404e-63
9.54276e-67
6.5439e-70
4.54063e-73
3.0572e-76
2.14815e-79
1.42786e-82
9.88085e-86
6.57872e-89
4.45003e-92
3.02504e-95
2.04896e-98
1.38236e-101
9.3121e-105
6.27983e-108
4.22779e-111
2.84759e-114
1.9216e-117
1.27852e-120
8.58607e-124
5.83907e-127
3.83589e-130
2.54211e-133
1.69304e-136
6.72836e-140
1.04269
1.06578
1.03928
1.03237
1.00545
1.00695
0.704402
1.42654e-12
5.84925e-15
7.33682e-18
3.22981e-18
2.58654e-19
2.55586e-21
2.70327e-24
5.46015e-28
1.94214e-31
1.39807e-34
1.05383e-37
7.6784e-41
5.53683e-44
3.98988e-47
2.87016e-50
2.05935e-53
1.47523e-56
1.05429e-59
7.5144e-63
5.34632e-66
3.79575e-69
2.68909e-72
1.90053e-75
1.33973e-78
9.41891e-82
6.60519e-85
4.62364e-88
3.2291e-91
2.25177e-94
1.56613e-97
1.08619e-100
7.51654e-104
5.19358e-107
3.58011e-110
2.4627e-113
1.69009e-116
1.15709e-119
7.90685e-123
5.3895e-126
3.66531e-129
2.48986e-132
1.68644e-135
6.74167e-139
1.0364
0.956381
0.994159
0.931234
0.952802
1.00996
0.305942
-1.64759e-21
-1.54589e-20
-5.3359e-25
1.04516e-18
3.758e-20
9.96844e-23
2.04974e-26
2.1695e-30
7.74168e-34
3.0748e-37
1.33004e-40
6.15178e-44
3.92312e-47
1.26948e-50
6.09716e-54
2.85188e-57
8.69754e-61
7.03314e-64
9.08362e-67
3.03751e-70
9.76087e-74
1.07231e-76
1.71236e-80
9.97979e-83
5.69259e-86
2.18911e-89
4.29291e-92
1.88328e-95
6.82575e-99
5.78136e-102
5.94964e-105
5.12866e-109
6.90349e-111
3.25995e-114
3.14465e-118
1.31754e-120
2.03369e-124
8.18597e-128
5.32359e-130
1.25339e-133
1.03363e-136
1.33102e-139
2.23609e-142
1.0503
1.03929
1.04668
0.999891
0.992907
1.01596
0.66777
2.13284e-13
-6.69434e-20
1.48637e-16
4.32297e-18
1.04491e-20
4.66867e-23
2.84523e-26
2.45498e-30
6.30938e-34
2.58132e-37
1.0955e-40
4.64373e-44
1.94166e-47
8.41702e-51
3.47133e-54
1.59423e-57
6.38523e-61
2.69945e-64
1.14787e-67
6.66524e-71
2.32871e-74
5.1983e-77
1.06769e-80
1.2378e-83
1.45157e-86
1.21344e-89
2.25211e-93
1.69682e-96
9.43503e-100
1.52289e-103
4.11533e-107
2.70306e-108
4.31772e-111
4.84441e-115
7.20571e-119
3.4491e-122
1.77271e-124
4.72805e-128
1.53303e-131
1.61022e-134
1.74822e-138
3.7861e-142
3.76179e-145
0.993113
1.03098
1.01962
0.984522
0.977385
1.00837
1.00053
4.79561e-10
-1.42671e-18
6.31076e-33
1.89885e-17
1.5625e-18
4.72922e-21
3.95742e-25
3.50804e-29
1.27998e-32
5.36277e-36
2.44034e-39
1.15356e-42
4.03707e-46
2.37019e-49
7.41164e-53
5.12744e-56
2.61754e-59
1.52629e-62
3.24872e-66
5.67061e-69
7.38991e-73
2.51073e-76
3.39306e-78
7.47457e-82
5.29022e-86
1.72897e-89
4.29023e-91
1.54937e-94
1.40474e-97
7.30843e-101
2.73934e-104
2.46555e-107
6.53024e-111
3.49637e-113
8.15298e-117
1.35598e-120
2.87216e-123
5.02565e-126
9.15416e-131
2.16377e-132
1.99321e-135
4.01782e-139
9.96989e-142
1.02645
1.01218
0.969986
1.01453
1.01529
1.00057
0.999842
0.00220161
-8.5447e-19
-1.19975e-21
4.90238e-18
8.03082e-19
1.34418e-20
1.44319e-23
1.11503e-27
1.96032e-31
7.73822e-35
3.32799e-38
1.37838e-41
5.83232e-45
2.46988e-48
1.00794e-51
4.97949e-55
3.63055e-58
1.32473e-61
5.90373e-65
1.51207e-68
1.74114e-70
1.25551e-73
7.74063e-78
1.89275e-80
1.80398e-83
3.17141e-87
5.35178e-91
1.50123e-93
2.62215e-97
3.45212e-100
4.45306e-103
2.87588e-107
2.04683e-109
1.50245e-112
2.93166e-115
3.45729e-118
2.04675e-121
1.36103e-124
6.19294e-128
4.30451e-131
2.88498e-135
6.59788e-139
2.5812e-142
1.00183
1.04166
0.917747
1.00006
0.994785
1.01672
1.00216
0.325353
-7.63327e-18
-2.42626e-20
1.66869e-17
4.74812e-18
1.15339e-19
2.05489e-22
2.40281e-26
3.16842e-30
1.15323e-33
4.88987e-37
2.43682e-40
9.64363e-44
3.60822e-47
1.62443e-50
7.25609e-54
3.78859e-57
2.74195e-60
3.81039e-63
4.59049e-67
1.13619e-70
7.69711e-74
5.91074e-76
5.44282e-79
3.39341e-83
1.62552e-85
6.73631e-89
6.67524e-92
7.60657e-96
5.07406e-98
1.17729e-101
4.41194e-104
2.79413e-107
2.36895e-111
1.19241e-113
5.00213e-117
1.26509e-120
1.13536e-123
1.60074e-127
3.78021e-129
2.08423e-132
6.93923e-136
1.41908e-138
1.05098
1.06814
0.973893
0.999998
1.00386
0.997636
1.0023
0.486357
-3.14336e-18
-2.24246e-20
1.22181e-17
3.69506e-18
8.9387e-20
1.6106e-22
1.89394e-26
2.47614e-30
9.16747e-34
4.07022e-37
1.70472e-40
2.68916e-43
5.0508e-47
4.92559e-50
1.34877e-53
5.15795e-57
1.76086e-60
5.5574e-64
5.88604e-67
1.23095e-70
3.84156e-74
4.36298e-75
6.81093e-78
4.29044e-81
5.21969e-85
2.26504e-88
2.79148e-92
5.05031e-95
2.54459e-98
5.38365e-101
5.63815e-105
1.30197e-107
1.1139e-110
2.08063e-114
1.0534e-116
5.23853e-120
1.63902e-123
1.34208e-127
3.86252e-131
1.85951e-132
1.09681e-135
4.21873e-140
1.02764
0.984924
0.703239
1.13903
0.885702
1.01771
1.00287
0.185525
-3.6967e-19
-4.96891e-22
4.36413e-18
7.08527e-19
1.16086e-20
1.21104e-23
9.21214e-28
1.64563e-31
6.47838e-35
2.8209e-38
1.17483e-41
4.95312e-45
3.8704e-48
1.0265e-51
4.26211e-55
2.31614e-58
1.1141e-61
8.80036e-65
1.84602e-68
7.2462e-72
7.09223e-74
3.00433e-77
2.18098e-81
9.37762e-85
2.8031e-88
6.57454e-91
1.82447e-93
4.97981e-97
7.27696e-101
4.22144e-103
9.45264e-107
1.041e-110
2.44633e-113
3.24471e-116
4.55307e-119
2.63856e-122
7.03692e-126
6.01611e-130
1.55464e-133
6.0204e-137
4.25001e-140
2.69222e-140
0.999606
1.06891
1.01999
0.996834
1.00946
1.04149
1.00204
6.88509e-07
-1.05182e-18
-5.28066e-38
1.84732e-17
1.51232e-18
5.22874e-21
5.16443e-25
4.15564e-29
1.46997e-32
6.19977e-36
2.57055e-39
1.23161e-42
5.32341e-46
2.0821e-49
1.35013e-52
8.73055e-56
1.54047e-59
2.50959e-62
3.69315e-66
1.68526e-68
1.91901e-71
1.28663e-75
9.56318e-79
4.83142e-82
4.93921e-85
1.23012e-87
4.61659e-91
5.7585e-95
1.68421e-97
7.63447e-101
4.06805e-104
5.59608e-107
2.71578e-109
2.51225e-113
5.17637e-116
2.29695e-119
6.21734e-123
2.65802e-126
2.07734e-130
6.70111e-134
2.60196e-137
1.01885e-140
3.56215e-144
1.03825
1.03367
0.999305
1.02993
0.927308
0.951021
1.00017
6.51567e-11
-4.44328e-20
1.39836e-16
7.48707e-18
1.96739e-20
3.1901e-23
2.14066e-26
2.78195e-30
6.87746e-34
2.80839e-37
1.19618e-40
5.14925e-44
2.19583e-47
9.20995e-51
3.95954e-54
1.65292e-57
7.09497e-61
2.99043e-64
1.89802e-67
5.59073e-71
2.34997e-74
9.14987e-78
3.95634e-81
2.2889e-83
3.3783e-87
3.62511e-90
3.73472e-93
2.42455e-96
8.83446e-100
3.61794e-103
2.29543e-106
1.71622e-110
1.1862e-112
1.69281e-116
2.22074e-120
2.76247e-122
3.79949e-125
8.64613e-129
2.24674e-132
3.99564e-135
4.60606e-138
2.64349e-140
5.45269e-144
1.01563
1.09369
1.00795
1.0492
1.01575
1.00855
0.705448
-2.39904e-19
-1.91252e-19
-2.405e-24
1.35082e-18
7.60909e-20
2.34091e-22
4.43413e-26
4.49975e-30
1.4952e-33
6.2349e-37
2.68546e-40
1.13415e-43
4.79141e-47
2.05629e-50
8.86782e-54
3.66071e-57
1.56093e-60
7.71556e-64
3.65079e-67
1.59493e-70
5.48675e-74
1.07049e-76
6.08542e-80
7.01641e-84
8.23241e-86
3.66148e-89
2.93696e-93
9.17403e-97
4.53783e-99
2.37728e-102
3.5893e-106
7.90722e-108
5.12375e-111
1.18542e-114
2.45712e-117
8.80555e-121
1.51541e-124
2.33772e-127
2.38919e-130
1.29554e-133
9.70444e-137
8.31583e-141
1.51165e-144
0.972057
1.0475
1.00045
1.0212
0.96511
1.04687
1.00132
1.00028
1.02198
1.00057
1.03489
1.00066
1.02514
1.00129
1.00133
0.993626
1.00218
0.996623
1.00174
0.99167
1.00234
1.00143
0.999124
1.00521
0.996741
1.00195
0.997813
1.00454
1.00403
0.995062
1.00267
1.0022
1.004
0.993745
1.0022
1.00183
1.02036
1.00541
0.998573
1.00141
1.02202
1.00567
1.00364
1.00929
1.00365
1.02127
1.00464
1.00331
1.00289
1.00468
0.999956
1.00124
1.03249
1.00444
1
1.00091
1.00028
1.00246
1
0.918185
1.00024
1.00098
1
1.00071
1
1
1.0072
1.0005
0.998389
0.999071
0.963666
1.04663
1.00139
1.01272
0.963154
1.02872
1.00111
1.00103
1.02538
1.00172
1.03023
1.00073
1.02499
1.00151
1.00232
1.00059
1.00297
1.00933
1.00186
0.999655
1.00236
1.0027
0.994837
1.00531
1
1.00235
0.996444
1.00365
1.00479
0.980726
1.00282
1.01832
1.0041
0.99761
1.00203
1.00167
1.0264
1.00594
0.993589
1.00163
1.02705
1.00562
1.00527
1.00166
1.00372
1.0184
1.00599
1.00011
1.0038
1.00467
0.997854
1.00119
1.04061
1.0046
1
1.0009
1.0004
1.00075
1
0.961777
1.00013
1.00082
1
1.00094
0.99637
0.998805
1.00652
1.00089
0.993775
0.998255
0.964622
1.02676
1.00115
1.00267
0.973331
1.02558
1.00059
1.00085
1.01185
1.00181
1.00029
1.00038
1
1.00139
1.00228
0.998917
1.00294
1.01401
1.00158
1
1.0021
1.00264
0.996809
1.00456
0.990284
1.00188
0.99686
1.00336
1.00451
0.988039
1.00267
1.0183
1.00392
1
1.00233
1.00195
1.02664
1.00577
0.982748
1.00183
1.02916
1.0055
1.00574
1.00102
1.00317
1.01635
1.00624
1.00361
1.00371
1.0048
1
1.00111
1.04004
1.0051
0.996556
1.00119
1.00018
1.00076
1
1
1.00028
1.00022
1
1.00094
0.993556
0.99918
1.0118
1.00031
0.998718
1
0.961524
0.995639
1.05927
0.998968
0.987395
1.0095
1.05875
1.00942
1.00625
1.02937
1.02335
1.02232
1.00975
1.00529
-2.92266e-20
0.536439
-1.11293e-17
0.305722
4.01712e-10
0.53542
4.01712e-10
1.03118
1.00074
0.999876
0.994835
1.02266
0.99887
1.02845
1.01595
1.01493
1.04241
1.02921
1.01494
1.05709
1.01693
-1.58168e-20
1
-2.33554e-17
0.667966
1.85885e-10
1.00003
1.23047e-08
1.00015
1.02009
0.957571
0.94687
1.00368
0.998089
0.993868
0.992227
1.00169
0.921317
0.994159
1.00152
0.943216
0.996874
-5.05683e-19
1.00114
0.172124
1.00096
4.35337e-07
1.00107
0.1803
0.923907
0.975042
0.982242
0.996373
0.945791
0.960075
0.970749
1.00028
1.00157
0.969824
0.996226
1.00295
0.964706
1.00011
0.467033
1.00007
0.920641
0.999879
0.468243
1.00013
0.918156
0.999152
0.971743
0.834143
0.974274
0.999584
0.975263
0.873196
0.993359
1.00283
0.976772
1.00061
1.00306
0.97089
0.992498
0.984038
1.00188
1.00014
1.00239
0.974518
1.00229
1.00012
0.933879
1.00525
0.97382
1.0117
0.928732
1.03574
0.993136
1.0001
1.00005
0.993584
0.986464
1.00019
0.998017
1.00007
1.00019
1.00361
0.979807
1.00267
1.00012
1.0042
0.970323
0.983256
1.11364
1.04387
0.948749
0.990114
1.07805
1.03302
1.01492
1.01811
1.00234
1.03019
1.01832
1.03579
1.01342
0.903784
1.0018
0.458247
1.00413
0.902242
1.00207
0.460412
0.949124
0.870924
0.945107
1.02522
0.958319
0.997324
0.950078
1.00942
1.01144
1.04056
1.03801
1.0129
1.0377
1.00789
0.204311
1.00027
-8.61659e-20
1.00233
0.212257
1.00035
2.04337e-06
0.856378
1.01804
1.00249
0.989018
0.843926
1.00796
0.999647
0.997512
1
0.984684
0.969928
0.999905
0.995633
0.996422
-8.33407e-21
0.840403
-8.43594e-20
1.00032
5.12791e-08
0.841331
5.35628e-10
0.995716
1
0.966052
1.01595
0.995559
0.994685
0.943696
1.0043
1.01183
0.997513
1.00954
1.01167
0.996698
1.00401
-1.8725e-17
0.350402
-2.54034e-19
0.705351
2.18995e-09
0.354017
2.18995e-09
0.993851
1.02888
1.0426
0.96062
1
1.0108
1.03874
1.00543
1.00512
1.03794
1.01922
1.01134
1.03377
1.00563
1.49816e-09
0.53521
1.33988e-09
0.308354
1.40363e-09
0.535289
1.33988e-09
1.03946
0.999547
1.02146
1
1.05377
1.00586
1.00016
1.00687
1.01213
1.06411
1.03655
1.00727
1.01122
1.06027
3.93005e-10
1.00017
2.1032e-08
0.667586
3.94843e-10
1.00005
2.10472e-08
0.995427
0.968282
1.00081
0.997887
1.01126
0.972417
1.0025
0.998999
1.00227
0.95398
1.00845
0.995108
1.00269
0.953908
6.41076e-07
1.00154
0.179754
1.00112
6.37719e-07
1.00107
0.179941
0.986624
1.002
0.992608
1.01748
1
1.00151
0.974473
1.00116
1.00487
0.970767
0.998422
1.00107
1.00477
0.984877
0.468019
0.999719
0.919037
0.999809
0.468177
1.00086
0.919149
0.999959
1
0.872643
0.997271
0.998004
0.99979
0.870923
0.997655
1.00328
0.970237
1.0087
0.998688
1.00401
0.97049
0.976243
1.00253
1.00016
1.00265
0.976225
1.0025
1.00006
0.890139
0.992093
1.06063
1.00205
0.943949
0.919918
1.03562
1.0006
1
1.00413
1
1.00052
1
1.0046
1.00022
1.00456
0.971373
1.00287
1.00006
1.00441
0.970989
1.00003
1.09013
1.09524
0.890957
0.915634
1.21309
1.00812
1.01814
1.01858
1.01423
1.01051
1.01783
1.01892
1.00023
0.902387
1.00174
0.460264
1.00329
0.903518
1.00181
0.460127
1.01541
0.938141
0.961612
1.07458
1.00436
0.855403
0.976203
1.01581
1.0125
1.04178
1.03818
1.01517
1.01246
1.0398
0.211374
1.00078
2.97827e-06
1.00241
0.212224
1.00037
2.97762e-06
0.931307
1.0409
0.994296
0.986446
0.80571
0.991538
0.997686
0.992144
0.999199
0.987075
0.962362
0.984085
0.994206
0.983947
8.30586e-08
0.841615
9.80117e-10
1.00041
8.32407e-08
0.841526
9.92582e-10
0.998581
0.974943
0.945505
1.00933
0.999486
0.993581
0.973827
1.00483
1.01006
1.00094
1.0065
1.00502
1.01032
1.00042
6.37695e-09
0.354814
6.37695e-09
0.705129
6.37695e-09
0.355838
6.37695e-09
1
0.99793
1.03902
0.95683
0.98799
0.985797
1.03113
1.00201
1.00416
1.02429
1.00706
1.00413
1.01165
1.00356
3.88167e-10
0.535422
3.88167e-10
0.290875
-5.45194e-20
0.535661
-7.39025e-18
1
0.952751
0.988623
1.01341
0.981764
0.996367
0.979008
0.998324
1.00882
0.938493
1.00778
0.998991
1.00849
0.910559
1.85644e-10
1.00017
1.23449e-08
0.668151
-1.41081e-20
1
-2.29026e-17
1.01551
1
0.996744
0.939147
0.998972
0.98474
0.952258
0.998656
1.00402
0.994065
1.0101
0.997678
1.00434
0.993983
4.32148e-07
1.00149
0.179906
1.00033
-5.0118e-19
1.00116
0.171952
1.01005
1.00374
0.973773
1.01522
0.980835
1.00168
0.97062
1.00227
1.00444
0.998369
1.00228
1.00103
1.00498
1.00101
0.468525
0.999846
0.917601
0.99991
0.466993
1.00056
0.921024
0.997561
0.992098
0.871774
0.998529
1
0.954827
0.828106
1.00067
1.0045
0.972939
1.01847
1.00043
1.00457
0.992453
0.974926
1.0024
1.00023
1.00197
0.984246
1.00171
1.00013
0.964207
1.00389
0.973608
1.00636
0.941572
1.01133
1.0652
1.001
0.997516
1.00459
0.977993
1.00084
0.999197
1.00658
1.00026
1.00451
0.970754
1.0021
1.00019
1.0035
0.980006
0.835876
1.23489
1.02023
0.970131
1.00795
1.11924
1.018
1.01873
1.01943
0.987424
1.00771
1.01904
1.02013
0.98343
0.902579
1.00195
0.460139
1.0033
0.902962
1.00171
0.45777
1.00625
0.887281
0.956493
1.02757
1.04434
0.987778
0.993614
1.01335
1.0138
1.042
1.04025
1.01605
1.01437
1.04235
0.211422
1.00071
2.0416e-06
1.00172
0.203772
1.00022
-2.56247e-19
0.808153
0.995173
0.997415
0.99326
0.672708
1.00815
0.979699
0.994652
1
0.994358
0.964591
0.994505
1.00001
0.966922
5.14957e-08
0.841637
5.11228e-10
1.00004
-1.88239e-16
0.839895
-9.48967e-20
1
0.994633
0.991898
1.0066
1.00223
0.982287
0.964163
1.00378
1.01292
0.999029
1.00585
1.00367
1.01308
0.999859
2.20399e-09
0.354128
2.20399e-09
0.706068
-1.97671e-17
0.35079
-3.65672e-19
1.00234
1.0005
0.985385
0.968502
0.980616
1.00213
1.00057
1.00842
1.00237
1.01817
1.04753
1.0223
1.0145
1.00733
1.00123
0.99806
1.00557
1.00114
0.993703
1.00587
1.00134
1.01274
1.02147
1.00554
1.0222
1.02359
1.01036
1.00587
1.00286
0.965841
1.0003
0.975125
0.977101
1.00253
1.00069
1.00616
1.04861
1.0295
1.0129
1.03534
1.01303
1.00419
1.00148
1.00161
0.988725
1.00617
0.991277
1.00611
1.00144
1.00606
1.00579
1.00105
1.00044
1.00591
1.00118
1.00631
1.01135
1.0365
1.00583
1.02507
1.03765
1.00531
1.01099
1.00242
1.00064
1.0013
1.00071
1.00085
1.00145
1.00276
1.01378
1.03261
1.01334
1.06622
1.01438
1.06947
1.00858
1.00587
1.00087
1.00541
1.00154
1.00574
1.00155
1.00533
1.01226
1.02484
1.03289
1.00611
1.03394
1.0052
1.01153
1.00256
1.00152
1.00102
1.00231
1.00138
1.00213
1.00222
1.00001
1.00174
1.0024
1.00155
1.002
1.0021
1.00147
0.982255
0.949734
1
0.993465
0.945498
1.00007
0.982135
1
1.00365
1.0022
1.0025
1.00114
1.0021
1.00013
0.993248
0.991518
1.00221
0.981046
1.00235
0.991879
0.989372
1
1.0023
1.00213
1.00217
1.00237
1.00246
1
0.981435
0.994378
0.978752
1.00021
0.952679
1.00028
0.979664
1.00003
1.00304
1.00263
1.0022
1.00155
1.0024
1
1.001
1.00063
1.00043
1.00352
1.00138
1.00182
1.00063
0.99809
0.977948
1.00077
0.998667
0.977784
1.00036
0.998071
1.00022
1.00165
1.00176
1.00934
1.00347
1.0014
1.00056
1.00013
0.996065
1.00426
0.962274
1.00425
0.981175
1.00063
1.00115
1.00328
1.00219
1.00346
1.00205
1.00309
1.00123
0.99785
0.996818
0.979628
1
0.975802
1
0.996364
1.00028
1.00979
1.00423
1.00216
1.00476
1.00179
1.00012
1.00277
1.00409
1.00454
1.0042
1.004
1.00424
1.00302
0.999987
0.990068
1
0.985662
0.988887
1
0.999992
1.00155
1.00342
1.00104
1.00244
1.00307
1.00073
1.00223
0.999913
1.00007
1.00302
0.970879
1.00222
0.971111
0.996781
1.00295
1.00485
1.0039
1.00388
1.00418
1.00453
1.00256
1
0.97648
0.988299
1
0.990243
1
1
1.00196
1.00286
1.00276
1.00069
1.0036
1.00107
1.00147
1.00076
1.00046
1.00268
1.00155
1.00037
1.00253
1.0011
0.998747
1.00257
1.01325
1.03745
1.00117
1.01355
1.00305
1.00299
1.00429
1.008
1.00548
1.004
1.00831
1.00448
1.00022
0.993308
1.00002
1.00258
1.00003
1.00308
1.00021
1.00091
1.00175
1.00021
1.00246
1.00041
1.00283
1.00044
1.00913
1.0319
1.00398
1.01431
1.00873
1.01451
1.00779
1.00667
1.00573
1.00479
1.00861
1.00511
1.00865
1.0072
1.01274
1.01001
1.00912
0.999728
1.01139
1.01073
1.01238
0.999487
0.944709
0.998163
1.01286
0.946811
0.991537
0.999631
1.00704
1.00515
1.00501
1.00227
1.00538
1.00552
1.00664
1.01611
1.02886
1.0184
1.03321
1.01825
1.05412
1.01698
1.01285
0.998909
1.01146
1.0107
1.01058
1.01014
1.0132
0.995343
1.00336
0.968886
0.997842
0.949056
0.991788
0.990051
1.00703
1.00242
1.00609
1.00642
1.0058
1.00666
1.0068
1.00745
1.01022
1.00286
1.00445
1.01001
1.00302
1.00794
1.0041
1.00537
1.00011
0.998301
1.00627
1.00024
1.00402
1.00622
1.0026
1.00245
1.00105
1.00248
1.00228
1.00642
1.01065
1.02669
1.01281
1.03696
1.01286
1.03911
1.01336
1.00719
1.00461
1.00957
1.00301
1.00986
1.00323
1.00717
1.00412
1
1.00843
1.00026
1.00688
1.00031
1.00422
1.00619
1.00129
1.00227
1.00243
1.00255
1.00258
1.00597
0.998197
1.00025
1
1.00032
1.00008
0.999987
0.999347
0.956185
1
1.00213
1.00128
0.999974
1.0012
0.943925
0.995634
1
0.998577
1
0.999997
0.998932
1
0.996797
0.981589
1
0.983266
0.999907
0.993999
0.984272
0.998529
1.00051
1.00002
0.999972
1.00009
0.999997
0.998515
0.991927
1.00058
0.995088
1.00025
0.995504
0.99984
0.991367
0.992222
1
0.999714
0.998369
0.999754
0.998435
0.991136
1.00179
1.00397
1.00017
1.00057
1.00398
1.00021
1.00161
1.00123
0.997317
1.0018
0.999337
0.99994
1.00118
1.00077
1.00087
1
1.00058
1
1.00001
1.00107
1.00071
1.00501
1.0082
1.01012
0.999411
1.01033
1.00099
1.00452
1.0021
1.00062
1.00476
1.00014
1.00465
1.00038
1.00202
1.00143
0.998179
1.00005
1.00022
0.998374
1.00133
1.00083
1.00107
0.998816
1
1.00046
1.00013
1.0008
1.00106
1.00196
1.00047
0.974371
0.963521
1.00281
0.975161
1.00036
1.00121
1.03724
1.01317
1.04472
1.00291
1.02527
1.01418
1.00099
0.987351
1.00622
1.00108
1.00137
0.98648
1.00632
1.00443
1.01555
1.00515
1.03768
1.0338
1.00464
1.00537
1.00188
0.963121
1.00063
0.977572
0.976484
1.00133
1.00065
0.999846
1.02524
1.00868
1.01603
1.00819
1.01508
0.998317
1.00068
1.00136
0.987909
1.00645
0.986877
1.00675
1
1.00513
1.00568
1.0021
1.00081
1.00545
1.0054
1.00198
1.00951
1.01541
1.00453
1.03696
1.01206
1.01328
1.00428
1.00298
1.00157
1.00247
1.00147
1.00306
1.00126
1.00243
1.00634
1.03909
1.00961
1
1.01038
1.03463
1.0034
1.00528
1.00124
1.00519
1.00223
1.00557
1.00247
1.00503
1.0075
1.03681
0.995413
1.00463
1.0067
1.00443
1.0031
1.0033
1.00178
1.0014
1.00315
1.00169
1.00293
1.00268
1.00068
1.00235
1.00262
1.00173
1.00049
1.00227
1.00177