/*--------------------------------*- C++ -*----------------------------------*\
| =========                 |                                                 |
| \\      /  F ield         | OpenFOAM: The Open Source CFD Toolbox           |
|  \\    /   O peration     | Version:  5.0                                   |
|   \\  /    A nd           | Web:      www.OpenFOAM.org                      |
|    \\/     M anipulation  |                                                 |
\*---------------------------------------------------------------------------*/
FoamFile
{
    version     2.0;
    format      ascii;
    class       volScalarField;
    location    "4";
    object      p_rgh;
}
// * * * * * * * * * * * * * * * * * * * * * * * * * * * * * * * * * * * * * //

dimensions      [1 -1 -2 0 0 0 0];

internalField   nonuniform List<scalar> 
8941
(
102.071
133.427
102.89
106.874
102.732
98.836
97.0975
91.6953
88.9437
86.3188
83.7619
81.2534
78.7786
76.3501
73.947
71.5735
69.216
66.8932
64.5925
62.3167
60.0459
57.7975
55.578
53.3506
51.1484
48.9634
46.7843
44.6031
42.4411
40.3035
38.162
36.0454
33.958
31.8635
29.7609
27.6913
25.6736
23.6927
21.7199
19.7409
17.7902
15.8841
13.9795
12.0496
10.1478
8.29429
6.44263
4.58336
2.74566
0.917984
99.9296
145.493
100.283
100.277
101.049
97.9098
96.7251
92.5736
88.9313
86.393
83.8142
81.2906
78.8234
76.3776
73.9576
71.5846
69.219
66.909
64.6154
62.3212
60.053
57.8
55.5683
53.3501
51.1363
48.9475
46.7752
44.6052
42.4484
40.3066
38.1776
36.0602
33.9558
31.8556
29.7634
27.6952
25.6694
23.6769
21.7019
19.7406
17.7965
15.8893
13.9864
12.0693
10.1563
8.28373
6.4292
4.58012
2.7459
0.917658
96.9821
97.161
97.9425
97.7058
101.73
97.9688
96.5029
92.8111
88.9725
86.3933
83.8246
81.2854
78.8076
76.3769
73.9632
71.5757
69.2339
66.9314
64.6341
62.3216
60.0575
57.8049
55.5638
53.3464
51.1396
48.9411
46.7604
44.61
42.458
40.308
38.1819
36.0594
33.9371
31.8458
29.7748
27.7158
25.6709
23.6683
21.6989
19.742
17.8056
15.8873
13.9774
12.0678
10.1655
8.28092
6.42321
4.58138
2.7485
0.917558
96.4324
97.3986
97.5072
95.9314
97.2283
96.2201
95.7235
93.1301
88.8068
86.3221
83.7733
81.2817
78.7924
76.3582
73.9574
71.5771
69.2318
66.9235
64.6113
62.3233
60.0638
57.8037
55.5664
53.3482
51.1506
48.9526
46.7611
44.6156
42.4524
40.2979
38.1819
36.0538
33.931
31.8399
29.7821
27.7308
25.6771
23.6641
21.6994
19.7481
17.8108
15.8778
13.9532
12.0585
10.1728
8.28393
6.424
4.58848
2.75492
0.9128
95.2538
94.1569
97.6074
101.838
99.9966
96.1465
94.923
93.7792
88.664
86.1947
83.6876
81.2059
78.7605
76.3345
73.9507
71.5762
69.2395
66.9112
64.5879
62.3228
60.0678
57.8028
55.5696
53.3511
51.1598
48.9679
46.7713
44.6108
42.4397
40.2895
38.1755
36.0452
33.9276
31.8382
29.7826
27.7397
25.6873
23.6701
21.7045
19.7596
17.8092
15.8583
13.9373
12.0511
10.171
8.28548
6.43133
4.60332
2.76333
0.910831
86.2351
95.2115
100.765
99.6311
95.8919
93.9781
93.8771
93.4773
88.3963
86.0322
83.5849
81.144
78.7237
76.3182
73.9516
71.5813
69.2452
66.9138
64.5838
62.3139
60.0693
57.7993
55.5709
53.361
51.1644
48.9811
46.7819
44.6061
42.4333
40.283
38.1679
36.0404
33.9208
31.84
29.7856
27.7408
25.697
23.6799
21.7074
19.758
17.8023
15.8442
13.9182
12.038
10.1644
8.2894
6.44753
4.62699
2.77415
0.913832
94.8958
111.676
125.425
94.5544
93.3629
97.6485
93.8091
92.3441
88.1572
85.8798
83.5061
81.1004
78.7111
76.3134
73.9361
71.5731
69.2398
66.9178
64.5847
62.3005
60.0433
57.7958
55.5695
53.3696
51.1711
48.9795
46.7877
44.602
42.4329
40.2919
38.1665
36.0289
33.9141
31.8461
29.7882
27.7351
25.7022
23.6929
21.7091
19.7527
17.7954
15.8424
13.9194
12.0358
10.1595
8.29069
6.45333
4.62642
2.77786
0.922871
111.207
115.402
121.676
89.0214
87.8089
95.6947
93.3187
91.4647
88.1236
85.8639
83.4861
81.0894
78.7056
76.3092
73.9131
71.5739
69.2301
66.9061
64.5976
62.2939
60.0388
57.792
55.5678
53.371
51.1713
48.9838
46.7896
44.6001
42.4479
40.3009
38.1625
36.0258
33.9183
31.8525
29.7861
27.7233
25.7018
23.703
21.713
19.7411
17.7896
15.8484
13.9306
12.0398
10.1586
8.29259
6.45156
4.61541
2.77616
0.926802
127.707
113.785
137.764
115.486
92.8687
94.4569
93.6974
91.1691
88.2611
85.9702
83.5526
81.1368
78.7245
76.3179
73.93
71.5768
69.212
66.8908
64.593
62.3039
60.034
57.7868
55.5729
53.3664
51.1724
48.9842
46.7858
44.5989
42.4393
40.2977
38.1498
36.0254
33.9364
31.8568
29.7782
27.7126
25.695
23.7066
21.7171
19.7412
17.7869
15.858
13.9472
12.0406
10.154
8.29395
6.44458
4.60471
2.76524
0.927873
116.316
121.348
108.7
109.452
98.1123
95.8892
95.0721
91.2771
88.6947
86.1562
83.6664
81.1905
78.7367
76.3381
73.9399
71.5677
69.2126
66.8906
64.5876
62.3074
60.0373
57.7893
55.5769
53.3561
51.1623
48.9806
46.7884
44.6011
42.4373
40.2988
38.153
36.0322
33.9518
31.8637
29.7668
27.6972
25.6832
23.7011
21.7198
19.74
17.7885
15.8738
13.9663
12.0427
10.1496
8.29903
6.44812
4.59367
2.75102
0.918294
109.902
95.8637
102.642
108.651
101.839
98.5163
96.9352
91.6961
88.9436
86.3188
83.762
81.2535
78.7784
76.3502
73.947
71.5729
69.216
66.8934
64.5926
62.3165
60.0458
57.7975
55.578
53.3505
51.1484
48.9634
46.7842
44.6031
42.4408
40.3034
38.1619
36.0455
33.9581
31.8634
29.7609
27.6911
25.6736
23.6927
21.7199
19.7408
17.7901
15.8842
13.9796
12.0496
10.1478
8.29424
6.44255
4.58334
2.74562
0.918057
97.6724
100.286
100.407
101.925
101.445
97.9862
96.765
92.5731
88.9318
86.3929
83.8142
81.2906
78.8234
76.3776
73.9576
71.5845
69.2192
66.9092
64.6153
62.3211
60.0531
57.8001
55.5681
53.35
51.1363
48.9474
46.7751
44.6051
42.4484
40.3068
38.1782
36.0603
33.9557
31.8556
29.7634
27.6952
25.6694
23.6769
21.7018
19.7404
17.7965
15.8894
13.9865
12.069
10.1564
8.28374
6.4291
4.58021
2.74609
0.917611
98.9142
97.7099
98.2221
98.1752
99.696
97.1303
96.4907
92.8101
88.9739
86.3932
83.8246
81.2853
78.8076
76.3769
73.9632
71.5757
69.2338
66.9313
64.6342
62.3215
60.0573
57.8048
55.5636
53.3464
51.1396
48.941
46.7604
44.61
42.4581
40.3083
38.1817
36.0593
33.9371
31.8458
29.7748
27.7158
25.6708
23.6683
21.6989
19.7419
17.8056
15.8874
13.9773
12.0677
10.1657
8.28075
6.42308
4.58144
2.74854
0.917539
96.1388
97.6139
97.1976
95.5265
96.9403
96.1069
95.7463
93.1208
88.8073
86.3217
83.7734
81.2817
78.7924
76.3582
73.9574
71.5771
69.2318
66.9233
64.6112
62.3232
60.0639
57.8037
55.5664
53.3483
51.1505
48.9525
46.7612
44.6157
42.4524
40.2978
38.1818
36.0538
33.931
31.8399
29.7821
27.7305
25.6769
23.6641
21.6994
19.7481
17.8108
15.8777
13.9531
12.0584
10.1729
8.28392
6.4239
4.58846
2.75491
0.912667
96.1246
94.2011
97.4304
100.166
96.6495
95.7828
94.8921
93.7033
88.6641
86.1948
83.6877
81.2059
78.7603
76.3345
73.9509
71.5763
69.2395
66.9112
64.5879
62.3229
60.0678
57.8028
55.5695
53.3513
51.1596
48.968
46.7714
44.6107
42.4392
40.2894
38.1756
36.0452
33.9275
31.8382
29.7826
27.7397
25.6873
23.6701
21.7045
19.7596
17.8092
15.8582
13.9372
12.0511
10.171
8.28546
6.43126
4.60325
2.76331
0.910882
114.203
97.6456
111.72
95.9831
96.4743
93.8887
93.8049
93.4131
88.3963
86.0323
83.5848
81.144
78.7238
76.3182
73.9517
71.5813
69.2452
66.9139
64.5837
62.3139
60.0692
57.799
55.5707
53.3611
51.1645
48.9812
46.7819
44.606
42.4333
40.2832
38.1678
36.0403
33.9207
31.8399
29.7857
27.7408
25.697
23.6798
21.7073
19.758
17.8023
15.8442
13.9183
12.038
10.1643
8.28938
6.4475
4.62701
2.77388
0.913799
108.565
99.3634
120.627
135.331
91.0658
94.2557
93.8057
92.2193
88.1575
85.8797
83.5061
81.1004
78.7111
76.3134
73.9361
71.5731
69.2397
66.9176
64.5846
62.3005
60.0434
57.7957
55.5695
53.3695
51.171
48.9794
46.7877
44.602
42.433
40.2919
38.1667
36.0288
33.914
31.8461
29.7882
27.7348
25.7022
23.6928
21.7091
19.7527
17.7954
15.8423
13.9194
12.0358
10.1594
8.29067
6.45361
4.62649
2.77778
0.922977
115.673
106.595
108.138
94.7663
88.0023
93.1534
93.2625
91.4522
88.1241
85.8638
83.4861
81.0894
78.7055
76.3091
73.9131
71.5739
69.2303
66.9059
64.5978
62.2938
60.0387
57.792
55.5678
53.371
51.1713
48.984
46.7896
44.6
42.4477
40.3009
38.1624
36.0257
33.9183
31.8525
29.7861
27.7233
25.7018
23.703
21.713
19.741
17.7896
15.8484
13.9306
12.0398
10.1585
8.29257
6.45155
4.61539
2.77614
0.926769
129.381
108.255
114.36
119.564
79.2806
97.7212
93.7033
91.1658
88.2617
85.9699
83.5527
81.1368
78.7244
76.3179
73.93
71.577
69.2122
66.8908
64.5931
62.304
60.034
57.7868
55.5729
53.3664
51.1724
48.9841
46.7858
44.5988
42.4394
40.2978
38.1498
36.0253
33.9364
31.8567
29.7781
27.7126
25.695
23.7065
21.717
19.7412
17.787
15.858
13.9472
12.0404
10.154
8.29394
6.44454
4.60468
2.76531
0.927872
117.114
112.698
108.099
103.582
98.0747
95.7979
95.0952
91.2775
88.6947
86.1562
83.6665
81.19
78.7365
76.3381
73.9399
71.568
69.2126
66.8905
64.5876
62.3073
60.0372
57.7892
55.5769
53.3561
51.1626
48.9806
46.7883
44.6012
42.4373
40.2988
38.1529
36.0323
33.952
31.8637
29.7663
27.6973
25.6832
23.7011
21.7198
19.74
17.7885
15.8737
13.9664
12.0426
10.1497
8.29904
6.44799
4.59365
2.7511
0.918281
94.4032
98.9997
102.879
93.6192
102.177
98.1488
96.9326
91.6956
88.9436
86.3187
83.7621
81.2536
78.7781
76.3502
73.9469
71.5726
69.216
66.8934
64.5927
62.3163
60.0457
57.7976
55.5779
53.3503
51.1483
48.9634
46.784
44.603
42.4406
40.3033
38.162
36.0455
33.958
31.8633
29.7609
27.6911
25.6735
23.6927
21.7199
19.7407
17.7899
15.8842
13.9795
12.0498
10.1477
8.29417
6.44242
4.58326
2.74552
0.918018
95.8923
97.7047
102.395
99.6108
99.6879
98.1265
96.7614
92.5735
88.9312
86.3929
83.8141
81.2905
78.8233
76.3775
73.9575
71.5842
69.2191
66.9093
64.6152
62.3209
60.053
57.8001
55.568
53.3499
51.1362
48.9472
46.7749
44.6051
42.4486
40.3069
38.1782
36.0602
33.9556
31.8556
29.7633
27.6951
25.6693
23.6774
21.7016
19.7403
17.7964
15.8895
13.9863
12.0687
10.1564
8.2837
6.42903
4.58015
2.74617
0.917423
96.7465
98.6266
97.946
97.716
103.812
97.3447
96.4876
92.8115
88.9738
86.3932
83.8245
81.2852
78.8075
76.3768
73.9631
71.5756
69.2337
66.931
64.6341
62.3214
60.0571
57.8048
55.5635
53.3463
51.1395
48.9409
46.7604
44.6099
42.4581
40.3083
38.1812
36.0589
33.9372
31.8459
29.7754
27.7157
25.6707
23.6683
21.6988
19.7417
17.8057
15.8874
13.9774
12.0674
10.1657
8.28065
6.42298
4.58144
2.7485
0.917415
96.2828
97.5765
98.8634
95.5214
96.9948
96.2503
95.7205
93.115
88.8067
86.3212
83.7732
81.2816
78.7923
76.3581
73.9573
71.577
69.2317
66.9231
64.6111
62.323
60.064
57.8036
55.5663
53.3483
51.1505
48.9523
46.7613
44.6156
42.4524
40.2977
38.1817
36.0538
33.9309
31.8398
29.7821
27.7305
25.6768
23.664
21.6995
19.7481
17.8108
15.8774
13.9529
12.0583
10.173
8.28384
6.4238
4.58842
2.75478
0.912339
96.1377
93.3943
98.2851
95.8972
96.969
96.0543
94.8941
93.7233
88.6634
86.1951
83.6876
81.2058
78.7601
76.3344
73.9509
71.5763
69.2394
66.9111
64.5878
62.3229
60.0678
57.8027
55.5693
53.3513
51.1593
48.968
46.7715
44.6107
42.4391
40.2893
38.1756
36.0452
33.9274
31.8381
29.7826
27.7396
25.6874
23.67
21.7044
19.7598
17.8091
15.8581
13.9372
12.0509
10.1709
8.28539
6.4314
4.60316
2.7633
0.910787
97.3186
95.569
102.877
96.5057
97.3762
93.6561
93.82
93.4213
88.3957
86.0324
83.5846
81.1439
78.7239
76.3181
73.9517
71.5812
69.2451
66.914
64.5836
62.3139
60.0693
57.7988
55.5706
53.361
51.1645
48.9811
46.7818
44.6058
42.4333
40.2835
38.1681
36.0402
33.9205
31.8407
29.7858
27.7407
25.697
23.6797
21.7071
19.7581
17.8021
15.8441
13.9182
12.038
10.1641
8.28931
6.44752
4.62702
2.77345
0.913778
97.8477
121.678
84.3278
159.274
109.002
95.519
93.8023
92.222
88.1571
85.8797
83.506
81.1003
78.711
76.3133
73.936
71.573
69.2397
66.9174
64.5846
62.3005
60.0432
57.7957
55.5694
53.3695
51.1708
48.9793
46.7876
44.6023
42.4332
40.2919
38.1666
36.0287
33.914
31.846
29.7881
27.7347
25.7022
23.6928
21.709
19.7527
17.7953
15.8419
13.9193
12.0357
10.1592
8.2906
6.45366
4.62624
2.77731
0.922915
117.618
95.4922
97.0567
95.1213
86.9613
93.3418
93.2811
91.4518
88.1239
85.8638
83.486
81.0893
78.7055
76.3091
73.913
71.5738
69.2305
66.9056
64.5979
62.2938
60.0387
57.7919
55.568
53.3709
51.1712
48.9841
46.7895
44.5998
42.4477
40.3009
38.1624
36.0256
33.9182
31.8524
29.786
27.7235
25.7017
23.7029
21.7129
19.7409
17.7894
15.8484
13.9308
12.0397
10.1584
8.29251
6.4515
4.61535
2.77613
0.92673
125.258
110.377
119.399
97.7237
107.048
94.6302
93.7043
91.1657
88.2615
85.97
83.5525
81.1367
78.7244
76.3178
73.9299
71.5772
69.2124
66.8906
64.5931
62.304
60.0339
57.7867
55.5729
53.3663
51.1721
48.984
46.7854
44.5987
42.4394
40.2979
38.1497
36.0252
33.9364
31.8567
29.7779
27.7126
25.6951
23.7064
21.7169
19.7411
17.7871
15.8582
13.9471
12.0402
10.1539
8.29388
6.44439
4.60461
2.76524
0.92778
114.407
115.923
108.051
106.262
99.0966
95.7374
95.0939
91.2773
88.6947
86.1561
83.6665
81.1899
78.7362
76.338
73.9398
71.5682
69.2125
66.8904
64.5878
62.3072
60.0369
57.7891
55.5768
53.3561
51.1625
48.9805
46.7883
44.6011
42.4374
40.2988
38.1524
36.0324
33.9524
31.8636
29.7663
27.6974
25.6832
23.701
21.7197
19.7399
17.7884
15.8737
13.9662
12.0424
10.1497
8.29902
6.44781
4.59359
2.75111
0.918215
96.7065
98.5005
96.8613
98.5654
96.7151
98.3716
96.8676
96.6509
98.3783
96.764
97.8831
96.6571
98.1621
96.752
96.6543
95.9545
96.1977
97.1723
96.5957
96.3706
96.1869
96.4858
95.7107
95.4249
96.1725
96.0716
95.6899
95.64
95.0498
95.2283
94.0553
95.7976
95.1249
95.8343
94.0563
93.7143
93.0618
93.5273
93.698
93.7063
93.4056
93.5249
94.2513
94.5457
93.5487
94.2095
93.7814
93.7538
93.3161
93.2649
92.4667
93.3631
93.312
93.2627
92.4112
93.3554
93.7047
94.7869
94.8923
102.708
93.6855
94.6821
94.8965
95.1345
97.4638
96.4721
95.7711
95.1343
97.4171
96.4962
96.724
98.3478
96.8654
98.243
96.7157
97.8269
96.8612
96.6573
98.129
96.7805
98.0685
96.6569
98.5983
96.7711
96.705
96.2184
96.0758
97.3076
96.5924
95.7489
96.1949
95.7998
95.6696
95.3632
96.0614
95.9924
95.5873
95.6518
95.0088
93.576
94.0227
96.2715
95.0312
97.3545
94.0913
93.6554
93.538
93.5524
93.3589
93.6714
93.0931
93.5316
93.9779
93.608
93.5913
95.6413
93.7823
92.0251
93.5832
93.2605
92.4345
93.3488
93.2697
93.2617
92.3149
93.357
93.6908
94.6998
94.8971
93.1457
93.6982
94.716
94.8991
95.1342
97.3246
96.4996
95.7709
95.131
97.5603
96.5017
96.6961
97.903
96.8611
98.2339
96.701
97.8067
96.8554
96.6583
98.4976
96.8032
99.1912
96.6568
99.5005
96.7799
96.7055
95.839
96.2413
97.5345
96.6542
95.8568
96.2051
95.8992
95.6164
95.3242
96.7969
96.2137
95.6324
95.7233
95.0327
94.6758
94.0444
96.261
95.0397
97.0581
94.0679
93.696
93.0424
93.5366
94.1634
93.6872
92.7962
93.5393
93.703
91.7084
93.3826
95.2608
93.7011
91.6378
93.4955
93.2619
92.3977
93.3554
93.2809
93.2666
92.8688
93.3592
93.6909
94.7074
94.8998
96.0093
93.699
94.7015
94.8937
95.131
97.613
96.4964
95.8679
95.1267
97.9625
96.4699
104.347
99.8067
99.0732
103.669
99.6312
98.5543
98.9902
97.8844
97.6837
100.099
98.7474
99.5092
97.8529
97.6199
93.9494
97.0551
94.1918
96.9348
93.9565
97.0526
94.1986
96.2581
99.957
99.211
97.9747
96.9088
100.062
101.113
97.5473
97.0487
104.279
97.6479
97.0561
101.955
97.6773
93.9169
96.6859
93.9719
96.758
93.9264
96.6915
93.9769
99.3446
95.3937
101.166
99.5439
99.6539
93.3885
97.7596
97.325
97.0247
101.909
97.7533
97.0392
97.6876
97.842
94.0338
95.8569
94.6146
96.4955
94.0357
95.8137
94.4987
100.836
96.5457
95.9031
97.6236
98.503
97.8785
96.9083
95.9376
96.3274
94.8206
96.2134
96.1413
95.4744
95.938
94.7032
95.2576
94.958
95.7281
94.6451
95.259
94.9936
95.8247
97.89
107.21
96.5529
95.7852
97.5138
97.6808
94.9694
95.0459
96.535
95.8276
95.0702
95.7649
95.1201
94.7925
94.3423
94.1294
94.8983
94.7864
94.3114
94.1503
95.2536
86.4903
85.259
96.339
95.0716
88.7576
83.5419
92.544
93.6134
92.5512
93.3736
93.6162
91.7718
92.5447
93.9679
93.8107
93.7901
93.8218
93.9865
93.7726
93.783
96.8911
93.7392
114.951
93.3408
96.0304
92.158
114.34
94.107
94.8226
100.846
96.7385
94.8338
95.2877
94.272
93.7541
93.6907
93.0896
93.8407
93.7866
93.6992
93.0386
107.895
68.6801
87.9347
87.2562
95.1045
78.5598
87.1138
92.1878
92.9093
92.5615
95.7411
92.8673
92.3022
92.3388
92.89
93.4951
92.1268
93.2787
92.7921
93.4904
92.1243
82.7976
96.5377
94.482
81.1388
89.9866
96.7349
94.4355
92.7303
93.4595
76.8271
92.4397
93.4637
77.0634
92.4299
92.0831
94.9394
92.7428
93.7034
92.0862
94.9866
92.7526
97.0905
103.528
104.962
98.6253
97.0846
101.183
97.4824
96.2646
95.7261
96.0865
95.8634
95.6819
96.2248
96.2881
92.9551
96.6808
93.9496
95.0953
92.9608
96.5538
93.9589
98.5147
101.85
98.7206
101.6
98.8006
98.6863
99.011
97.799
97.5901
100.062
98.4632
97.8609
99.1736
97.5994
93.9543
97.0571
94.1957
96.9429
93.9545
97.0561
94.1956
98.188
100.054
99.8932
98.8539
100.695
101.019
99.4086
97.7045
96.9699
101.384
98.1841
97.6987
97.0222
101.33
93.9248
96.6902
93.9731
96.767
93.9242
96.6842
93.9737
99.2001
97.0903
98.3761
111.009
94.6665
99.0531
98.9107
97.4563
96.9867
98.8253
97.6872
97.1226
96.9309
99.0749
94.0336
95.829
94.4855
96.4849
94.0339
95.8061
94.4845
98.2596
96.993
98.4715
97.209
98.4751
96.9644
95.6037
95.9628
96.2592
97.144
96.1222
95.9503
96.25
96.7565
94.6268
95.2863
94.9995
95.7225
94.6346
95.3503
94.999
95.822
97.8466
97.9045
96.7979
95.7865
98.1396
97.0018
95.2461
95.0145
95.9992
95.81
95.1488
95.0734
95.8263
94.7846
94.327
94.1523
94.9421
94.7792
94.3204
94.15
95.905
85.2494
95.8421
97.471
102.719
102.729
91.2309
92.5309
93.55
91.9253
93.8492
92.5305
93.5188
92.1309
93.989
93.7994
93.7819
93.8856
93.9932
93.7773
93.7802
96.3301
96.4278
128.25
107.302
114.153
118.535
65.9703
94.1342
94.8291
94.8012
95.332
94.1553
94.8394
95.56
93.797
93.6915
93.0231
93.7784
93.8018
93.6884
93.0212
90.3361
72.6783
89.302
97.2615
90.0723
106.118
100.762
92.3718
92.8577
92.666
93.2739
92.3204
92.8565
92.4225
92.772
93.4884
92.1213
93.2812
92.7739
93.4883
92.1206
113.74
101.94
95.203
91.4343
109.727
96.1777
95.1845
93.0624
93.4005
74.0213
96.5728
94.0406
94.3714
71.8209
92.0824
94.9916
92.7513
93.7045
92.0828
94.9924
92.7516
96.945
99.7857
97.2924
98.1302
96.9418
98.4268
97.2034
96.2804
95.6264
96.4029
95.8633
96.3174
95.6062
96.2568
92.9573
96.5394
93.9583
95.0949
92.9574
96.5444
93.9584
98.836
99.281
98.7173
103.073
99.8711
101.245
98.1908
97.6542
97.4324
99.3374
98.0539
97.8623
99.3048
97.4014
93.957
97.0551
94.1985
97.0977
93.9497
97.0519
94.1913
99.6976
105.789
99.3355
99.0434
104.03
112.274
106.099
98.2687
97.0769
101.409
98.4416
98.1391
97.1172
102.098
93.9255
96.6843
93.9779
96.7269
93.9151
96.6793
93.9731
96.2336
101.146
98.7768
103.396
95.7794
99.8892
99.637
97.0979
96.9678
96.5098
97.2926
97.2211
97.0252
96.5745
94.0372
95.837
94.4959
96.4934
94.035
95.8469
94.6153
100.237
97.2305
95.6337
96.9824
98.2874
97.1586
95.9563
96.2948
96.3267
96.5817
96.861
96.0169
96.2335
97.2182
94.6522
95.3203
94.9975
95.723
94.7035
95.3182
94.9572
96.0071
97.7353
96.4966
96.7395
96.8328
95.4737
93.4186
95.1489
95.0765
96.93
96.1002
95.1619
95.0734
96.6847
94.7802
94.3061
94.1486
94.9043
94.7935
94.359
94.1278
109.672
90.3019
102.073
92.0364
93.8655
90.6912
94.6239
92.4719
93.5434
92.4164
95.1592
92.5
93.6066
92.5319
93.9913
93.7896
93.7777
93.8335
93.9721
93.8548
93.7958
144.597
135.666
65.6258
102.45
94.868
95.4638
80.1862
94.0224
94.779
98.49
97.2941
94.0132
94.7185
99.88
93.7992
93.6902
93.0341
93.8058
93.7539
93.6867
93.0881
89.9492
94.273
98.5068
85.4896
93.3441
87.3535
98.1957
92.3388
92.828
92.4496
93.2423
92.4052
92.8263
92.4659
92.7869
93.4909
92.1224
93.3296
92.8936
93.4932
92.1242
109.372
95.7198
95.249
92.8836
113.286
94.5866
95.5925
95.7081
93.4683
140.817
93.936
95.1431
93.5175
129.286
92.0866
94.9895
92.7531
93.6999
92.0831
94.9411
92.7433
96.1234
98.727
103.169
98.8025
96.3408
99.9636
100.046
96.2458
95.8068
96.6949
96.0128
96.2717
95.8434
96.9563
92.9608
96.5516
93.9591
95.0728
92.9547
96.6692
93.9498
97.2048
96.9632
96.9126
96.6728
96.8237
97.2128
96.9661
98.0133
102.131
97.9643
98.499
98.6914
97.5324
97.8646
97.3503
96.8467
97.3799
96.8678
96.7752
97.3671
97.355
98.4111
98.5863
97.5891
99.5881
99.189
97.7099
97.6124
97.218
96.7011
96.9638
96.8813
96.8458
97.1984
96.967
97.6859
98.5912
97.9797
97.7026
99.3221
97.6819
97.6943
97.3493
96.8698
96.804
97.3748
96.7819
97.3747
97.3517
96.925
96.9025
96.7842
96.6564
96.9066
96.7875
96.9456
97.826
99.3442
97.554
98.2068
99.5486
97.5451
97.8325
97.047
96.8024
97.0869
96.7403
96.7932
97.0604
97.0587
97.4271
97.7361
96.9433
102.025
96.9927
103.13
97.5325
96.9097
96.6574
96.9133
96.79
96.9001
96.7881
96.8965
97.8947
98.1827
98.9728
97.6644
99.0393
97.5492
97.8111
97.0385
96.7657
96.8034
97.0348
96.8163
97.0308
97.0849
96.8926
96.9017
96.6042
96.622
96.8732
96.6157
97.069
96.2304
95.6749
96.6264
95.9468
96.6043
96.6262
96.2544
96.7634
96.7036
96.2181
96.1548
96.3092
96.2256
96.7523
97.2174
98.4953
97.0086
102.506
97.0242
106.111
98.3621
96.8962
96.691
96.8884
96.4703
96.9291
96.5371
96.8815
96.231
95.8321
103.352
96.6222
94.9007
96.6283
96.308
96.7572
96.3338
96.1229
96.2177
96.1695
96.2203
96.7442
95.8177
96.0872
96.0258
96.1598
95.9579
95.7943
95.8595
95.58
96.3974
95.5122
95.6442
96.4169
95.4557
95.5796
95.4635
95.8107
95.2359
95.9121
95.5124
95.2528
95.4882
95.96
96.2293
96.2026
100.009
96.2051
99.0051
95.9291
95.8324
96.0825
95.9709
95.8145
95.9643
95.8109
95.8298
95.5481
95.64
96.19
95.4888
96.9029
95.4896
95.4563
95.459
96.0619
95.5058
95.1837
95.6981
95.1922
95.4753
94.8799
95.0914
94.7971
95.0326
95.0869
94.7338
94.8895
94.5453
95.0301
94.4021
94.4197
95.0346
94.3951
94.5449
94.4484
94.4344
94.1748
94.0467
94.4042
94.1713
94.5133
95.5453
95.8404
95.0173
95.7926
95.247
95.7809
95.0406
94.8869
95.2116
95.1153
94.7423
95.0985
94.7423
94.8667
94.5516
96.4678
94.8963
94.3789
95.0546
94.3833
94.5572
94.4064
94.0843
94.4017
94.164
94.4379
94.1507
94.4448
93.1726
93.6867
93.3572
93.6867
93.6836
93.3593
93.2084
93.2208
90.4943
92.9354
95.3535
90.66
92.9237
92.4645
93.4136
93.3047
93.4146
93.5216
93.3484
93.3899
93.1514
92.5393
93.3175
93.5869
91.8262
93.6069
91.8029
92.5372
93.1698
93.6682
93.6959
93.3492
93.6933
93.3616
93.1988
92.7469
93.3471
90.3497
92.9561
90.3138
92.955
92.6441
93.1382
93.5228
93.3252
93.4135
93.3544
93.4115
93.1862
93.8856
94.1021
93.8792
94.3865
94.0438
93.7272
93.9214
94.0969
97.6753
94.7919
94.912
96.894
94.9019
94.0986
93.7398
93.7215
93.4342
93.372
93.712
93.3396
93.754
94.1678
96.3356
94.8299
94.6565
94.8322
102.114
94.1632
93.8925
94.682
93.9667
93.6352
93.9765
93.6232
93.944
93.8684
93.9818
102.411
93.5944
96.3781
94.809
95.3738
93.7396
93.3278
93.7449
93.3474
93.7214
93.3604
93.7411
92.7405
93.0574
93.14
93.2642
93.0304
93.1348
92.8011
92.6353
92.1743
92.5272
92.5295
92.1047
92.5295
92.6386
92.9057
93.1871
92.9279
93.3524
93.1837
92.948
92.9288
92.1657
94.0733
92.8646
92.457
92.8678
92.087
92.2336
92.7632
93.2589
93.0304
93.137
93.0261
93.1522
92.7573
92.6356
92.4471
92.0847
92.5313
92.0939
92.5365
92.64
92.9011
93.3704
93.1914
92.9279
93.1859
92.9477
92.8885
93.8241
93.2921
94.0532
93.7014
93.2846
94.0509
93.9035
88.1804
92.4195
94.8906
94.625
92.4843
94.823
90.7919
94.1932
94.2891
94.9237
94.8991
94.2923
94.9532
94.969
92.8065
93.0573
93.4821
75.3024
93.4793
75.9263
93.5065
93.7764
93.763
93.2921
94.0502
93.2868
94.0519
93.7557
97.9353
94.7366
92.3987
94.8223
92.2258
94.8986
97.7761
94.0619
94.8973
94.2923
94.9025
94.2909
94.8973
94.0415
96.0082
95.4241
95.7068
95.1415
95.4278
95.7154
96.0214
96.2484
96.9352
97.2493
97.4083
96.8329
96.2503
97.0588
96.1447
95.7384
96.7655
96.4864
95.7509
96.1591
96.7528
96.3389
95.7687
95.6108
96.0538
95.5996
96.153
96.2913
96.033
95.137
95.4517
95.7133
95.428
95.7137
96.0252
96.2723
97.3926
96.7481
97.0496
96.8091
96.2537
97.0505
96.1503
96.4925
95.7574
96.6906
95.7543
96.1201
96.8757
97.1727
96.9581
96.9007
96.7205
97.2113
96.9012
96.9569
97.6509
100.4
97.6712
98.168
97.7065
98.8682
97.6214
97.3432
96.8184
97.3689
96.8638
97.3573
96.8319
97.3614
97.9299
98.2919
97.5248
99.9189
99.1653
97.9249
97.5592
97.175
96.718
96.9535
96.8992
96.9027
97.1897
96.9532
97.6058
98.216
98.9684
97.7402
98.9887
97.6295
97.8597
97.3375
96.8624
96.8303
97.3542
96.8324
97.3779
97.3615
96.926
96.9107
96.7923
96.6557
96.9053
96.9033
96.7946
97.6975
98.757
97.5341
100.461
97.9379
98.7158
97.5587
97.0261
96.8039
97.0348
96.7595
97.0296
96.7994
97.0357
97.6298
98.9792
97.0711
101.171
97.0676
101.167
97.4334
96.9279
96.6565
96.9174
96.7992
96.9163
96.7979
96.9158
97.6798
100.423
98.6726
97.5775
98.6478
97.5567
97.7198
97.1053
96.783
96.803
97.0104
96.8037
97.0141
97.0125
96.8189
96.8727
96.6054
96.6882
96.8185
96.8737
96.7021
96.3643
100.207
96.631
96.5629
96.371
100.098
96.6128
96.7766
96.2498
96.2299
96.066
96.7529
96.3344
96.2244
97.19
97.3905
96.9718
95.5197
96.9234
95.2014
97.1101
96.8132
96.6073
96.8258
96.6112
96.8523
96.5981
96.7818
96.326
95.757
99.3451
96.578
96.1405
96.6422
96.1069
96.7862
96.1911
96.3175
96.2237
96.1873
96.2272
96.7315
95.8371
95.9964
95.8426
95.8417
95.8256
95.9967
95.8137
95.5725
96.2671
95.498
95.6225
96.3104
96.5595
95.4904
95.4857
95.4816
95.2934
95.3472
95.4695
95.4764
95.2037
95.9703
96.0556
96.2794
96.7036
96.2835
96.7707
96.0413
95.8552
95.9011
96.0195
95.7825
96.0137
95.9461
95.8599
95.6462
95.5604
96.8242
95.436
96.126
95.4552
95.7061
95.4747
95.9128
95.4415
95.2229
95.4848
95.1961
95.4828
94.884
95.0945
94.6953
94.9743
94.8621
95.0585
94.7294
94.5686
94.9397
94.3602
93.2757
94.5663
95.9491
94.3448
94.4068
94.3868
94.1411
94.0402
94.4723
94.4398
94.1244
95.2331
95.871
95.0802
96.9002
95.0654
96.7022
95.1514
94.8705
95.1944
95.0873
94.7441
95.1103
94.7351
94.8749
94.5774
93.5246
94.5737
94.3507
94.5354
94.3448
94.5865
94.4089
94.0627
94.4192
94.1522
94.4331
94.1399
94.4472
93.1836
93.6979
93.3541
93.682
93.1775
93.7063
93.3588
92.9152
93.4687
93.0064
93.5245
92.8541
92.36
93.0699
93.2372
93.3699
93.4238
93.5288
93.246
93.342
93.419
92.5392
93.7988
94.53
92.4589
93.4807
92.1686
92.5372
93.1755
93.6684
93.7317
93.348
93.7145
93.3375
93.1847
92.9904
103.478
101.456
93.0144
92.1443
93.1681
93.0282
93.2615
93.5391
93.3405
93.3809
93.3844
93.4127
93.237
93.9522
93.9442
93.7123
93.8146
93.9272
93.9978
93.7551
94.2623
95.1779
93.508
93.0548
94.1711
97.9927
93.4006
93.7007
93.77
93.3268
93.9232
93.7249
93.7613
93.327
94.0974
95.6805
94.8479
96.5874
94.8415
96.2677
94.0472
93.9507
94.0392
93.9613
93.7243
93.9854
93.6682
93.9725
94.0795
92.3467
94.8647
93.2478
95.8004
93.3114
93.9718
93.7038
93.9047
93.7458
93.3517
93.7554
93.3549
93.709
92.7317
93.0307
93.1309
93.2649
92.7398
93.0329
93.1389
92.6434
92.0925
92.5337
92.2796
92.645
92.1568
92.5632
92.8905
93.1807
92.9313
93.3469
92.8803
93.192
92.9468
92.8567
93.2661
92.8331
92.442
92.8462
92.4437
92.3755
92.7178
93.2628
93.0229
93.1283
93.0284
93.1252
92.7237
92.6447
92.277
92.4844
92.6534
92.3207
92.6153
92.6445
92.8784
93.35
93.2002
92.9547
93.1927
92.9665
92.8677
93.7933
93.3024
94.0507
93.682
93.8252
93.3198
94.0532
95.9643
92.686
94.8028
94.7161
95.5967
93.1057
94.834
94.6594
94.2943
94.8996
94.8982
94.5554
94.3087
94.9131
93.6548
95.1503
93.4304
106.961
93.3793
125.968
94.4981
93.8289
93.6791
93.3495
94.035
93.3379
94.0452
93.8736
96.1494
94.7559
95.7319
94.7811
94.2689
94.9663
96.2111
94.7017
94.8992
94.3069
94.8917
94.3127
94.8998
94.8345
96.0259
95.46
95.7126
95.1328
96.0698
95.3689
95.7144
96.2597
96.7637
97.0673
97.3805
96.2476
96.7618
97.067
96.1446
95.759
96.6938
96.502
96.1211
95.7602
96.7977
96.2673
95.7748
95.695
96.9817
95.6484
96.1452
96.2339
96.0287
95.1317
95.356
95.719
95.3606
95.7166
96.0203
96.2283
97.6521
96.7051
97.0712
96.7548
96.2145
97.0662
96.1215
96.5007
95.7592
96.7065
95.7597
96.1142
96.7045
97.1967
96.9567
96.8817
96.6717
97.1953
96.8512
96.9566
97.4964
98.9153
97.7135
97.8519
97.6532
101.626
97.7172
97.3558
96.8227
97.3658
96.8619
97.362
96.8118
97.353
97.6439
98.0213
97.351
101.566
99.3368
97.8724
97.3767
97.2004
96.6543
96.9577
96.9401
96.8173
97.2074
96.9576
99.1816
97.827
98.2971
97.7212
98.529
97.7445
98.3179
97.7377
96.8631
96.8483
97.3571
96.8038
97.3602
97.5442
96.935
96.9274
96.8034
96.6607
96.9006
96.9295
96.8051
97.9016
98.705
97.5497
98.8604
97.726
99.2277
97.7054
97.0499
96.8151
97.022
96.7695
97.0235
96.8016
97.0286
98.2682
98.6992
97.1791
102.7
97.1404
102.452
98.1839
96.9722
96.664
96.934
96.8045
96.9322
96.808
96.943
97.8928
98.652
100.501
97.4317
99.0632
97.4194
97.8943
97.0362
96.769
96.8103
97.069
96.802
97.0398
97.0355
96.8076
96.8656
96.7698
96.6269
96.7815
96.8512
96.5717
98.3269
97.63
96.7083
95.8751
101
96.1265
96.6104
96.675
96.4049
96.2434
96.1407
96.7539
96.8031
96.2104
97.1621
97.4189
96.9893
96.2476
96.9948
96.158
97.1624
96.8077
96.6222
96.8476
96.4858
96.8517
96.506
96.8051
98.3943
95.8341
96.5155
96.6526
96.1373
96.594
99.0529
96.5964
96.1443
97.0489
96.2308
96.7821
96.2113
96.6987
95.8695
96.1016
95.8289
95.9197
95.8625
96.0474
95.7781
95.7415
96.3646
95.4284
95.6269
95.7404
96.1481
95.4253
95.5064
95.4485
95.2756
95.2244
95.4964
95.4492
95.2035
96.4394
97.0153
96.5451
98.043
96.3032
97.001
96.2089
95.865
96.1542
96.0526
96.0232
96.0538
95.7821
95.881
95.7572
95.6284
96.123
95.5111
96.1215
95.4377
95.7534
95.5439
95.627
95.624
95.2788
95.4584
95.2442
95.5246
94.8952
95.0907
94.7602
95.0212
94.877
95.0896
94.7802
94.5921
94.6579
94.3389
100.046
94.6051
95.0681
94.3245
94.4503
94.4349
94.1538
94.0698
94.4028
94.4058
94.1553
95.0153
96.0975
95.1077
98.2876
95.0964
96.6981
95.1353
94.961
95.0157
95.0997
94.7809
95.1126
94.7561
94.9344
94.5973
94.878
95.0752
94.3146
95.0679
94.3196
94.635
94.4707
94.0737
94.3692
94.1576
94.3646
94.1506
94.44
93.1622
93.691
93.3386
93.6848
93.1629
93.6842
93.3526
93.1013
95.0165
93.0439
92.9683
93.083
94.8068
93.023
93.1945
93.3824
93.42
93.5414
93.242
93.3452
93.4062
92.5005
94.2877
93.639
93.2014
93.6018
93.4692
92.4922
93.1694
93.6859
93.6878
93.3437
93.6738
93.3447
93.1689
93.142
92.6605
95.13
93.0193
94.8885
93.0266
93.1501
93.1914
93.5347
93.4072
93.4051
93.3472
93.4047
93.3202
93.9563
93.9507
93.7383
93.534
93.9773
93.9458
93.7504
93.9735
94.4849
93.212
98.4604
93.8446
95.9411
93.1796
93.6701
93.722
93.3663
93.348
93.71
93.7114
93.3378
93.9427
95.2026
94.7743
97.5415
94.74
97.5786
93.9882
93.9761
93.9307
93.9533
93.98
93.9496
93.9022
93.9742
93.75
91.8325
101.087
93.6737
94.9938
93.1495
93.8893
93.6575
93.4882
93.7313
93.3618
93.7294
93.3762
93.7288
92.7278
93.0192
93.1406
93.267
92.7516
93.0204
93.1371
92.7233
92.2437
92.6775
92.4753
92.6827
92.1704
92.7018
92.8816
93.1838
92.9588
93.3526
92.8705
93.1891
92.9796
92.4394
93.3783
92.9169
92.9003
92.8126
93.1009
92.5201
92.7381
93.2561
93.0285
93.1408
93.0204