/*--------------------------------*- C++ -*----------------------------------*\
| =========                 |                                                 |
| \\      /  F ield         | OpenFOAM: The Open Source CFD Toolbox           |
|  \\    /   O peration     | Version:  5.0                                   |
|   \\  /    A nd           | Web:      www.OpenFOAM.org                      |
|    \\/     M anipulation  |                                                 |
\*---------------------------------------------------------------------------*/
FoamFile
{
    version     2.0;
    format      ascii;
    class       surfaceScalarField;
    location    "4";
    object      phi;
}
// * * * * * * * * * * * * * * * * * * * * * * * * * * * * * * * * * * * * * //

dimensions      [0 3 -1 0 0 0 0];

internalField   nonuniform List<scalar> 
26755
(
5.52074e-09
2.1728e-09
5.21692e-09
2.0419e-09
3.63405e-09
2.86268e-08
7.75888e-08
-6.93316e-08
-6.1685e-08
-4.65242e-11
4.68511e-10
-8.58212e-10
-2.79964e-10
-3.68163e-09
7.99688e-11
4.93042e-09
-8.43686e-10
1.49061e-09
-1.18691e-09
-8.23859e-10
-1.07922e-09
1.30785e-09
-5.28173e-10
9.47712e-10
-1.50138e-09
-6.84048e-10
-6.3187e-11
8.68214e-11
8.37887e-10
-1.63521e-10
-3.4029e-12
1.02791e-10
6.36653e-11
1.43152e-09
-4.3458e-12
-3.29871e-11
-2.58549e-10
-2.62959e-10
-4.32028e-10
-4.38846e-10
-9.6386e-12
-7.72148e-12
-1.55548e-11
1.39682e-09
1.45367e-11
-1.51004e-12
1.39015e-09
-6.80635e-12
7.24889e-15
1.38464e-09
-3.783e-12
-8.768e-14
1.38305e-09
-3.27675e-12
-8.77059e-14
1.38294e-09
-2.55949e-12
1.26487e-13
1.38122e-09
-2.45865e-12
-4.02697e-13
1.3807e-09
-9.59134e-13
1.42784e-13
1.38094e-09
-6.51163e-13
6.36738e-14
1.38069e-09
-1.43289e-13
-1.29265e-14
1.38051e-09
-2.53731e-13
-7.10386e-13
1.38069e-09
-5.51554e-13
1.8021e-13
1.38078e-09
-4.97945e-14
-6.13148e-13
1.38064e-09
-2.20344e-14
7.21451e-13
1.3806e-09
-5.95153e-13
3.02171e-13
1.38062e-09
6.31667e-13
-8.56443e-13
1.38056e-09
-1.4174e-14
6.36737e-14
1.38102e-09
-2.54127e-13
7.49556e-14
1.38068e-09
-1.29954e-12
-2.04527e-13
1.3809e-09
1.1561e-13
2.8921e-14
1.38086e-09
3.19564e-14
3.04259e-14
1.38078e-09
-2.11842e-13
-1.1022e-12
1.38096e-09
1.81098e-13
2.74205e-13
1.38021e-09
-1.10197e-12
3.8566e-12
1.38049e-09
-1.0369e-12
2.9182e-12
1.38029e-09
-3.69794e-13
1.85798e-13
1.38088e-09
-1.95808e-13
-2.72496e-13
1.38059e-09
3.08959e-14
1.75507e-14
1.38039e-09
2.32685e-13
-1.96548e-14
1.37982e-09
4.76271e-13
7.99643e-14
1.37967e-09
5.57254e-13
-6.18775e-13
1.38139e-09
-3.03591e-12
7.10321e-13
1.38057e-09
3.66396e-13
1.57047e-13
1.38045e-09
-2.6762e-14
2.45172e-14
1.38067e-09
-2.03032e-13
-1.22563e-13
1.38128e-09
-8.15819e-13
1.85866e-12
1.37955e-09
4.09036e-12
-2.03221e-12
1.37955e-09
1.76486e-13
-2.04468e-13
1.37976e-09
4.21337e-13
-5.6695e-13
1.38071e-09
-8.51893e-13
-1.60769e-13
1.38037e-09
2.11668e-13
1.32996e-13
1.37979e-09
-4.44143e-13
7.94242e-13
1.29336e-12
-1.17307e-12
-7.66649e-09
1.27912e-09
2.55354e-09
4.02479e-09
6.38085e-10
4.11133e-10
-1.05497e-09
-2.63874e-09
2.64449e-09
9.47349e-09
-8.66386e-10
-1.23133e-09
-1.8609e-09
-1.39365e-10
9.02291e-10
-1.29765e-10
-7.17578e-09
-8.53976e-10
2.35905e-09
-4.77332e-10
1.29025e-09
4.47992e-11
9.69292e-10
6.41684e-10
-1.28036e-09
3.75859e-09
8.98805e-10
7.26538e-10
1.03048e-09
1.39334e-09
-9.41399e-10
-3.11282e-09
-1.56842e-09
6.91289e-09
2.34618e-10
2.66914e-10
4.86285e-10
-1.37999e-09
3.92169e-10
-5.28979e-11
-9.57874e-12
4.53719e-12
-4.2498e-11
1.00437e-10
-3.35837e-11
2.0249e-10
-7.88915e-12
-6.94582e-12
-3.44083e-11
-6.09801e-11
-6.30332e-11
1.38527e-09
-7.70744e-12
-2.41965e-11
-2.50369e-10
-2.55496e-10
-4.10838e-10
-4.22149e-10
1.38627e-09
-5.85247e-12
-1.99338e-12
1.38536e-09
-3.38655e-12
4.74398e-13
1.38423e-09
-2.14545e-12
-4.74596e-14
1.38316e-09
-1.45766e-12
-6.53638e-14
1.38193e-09
-1.21083e-12
-5.72441e-14
1.38173e-09
-7.67824e-13
-1.63499e-14
1.38071e-09
3.10826e-13
3.0674e-14
1.38089e-09
-6.33926e-13
2.94655e-13
1.38097e-09
-3.1353e-13
-2.91504e-14
1.38081e-09
-3.28538e-13
-6.74813e-14
1.3807e-09
7.15031e-14
-2.03637e-14
1.38072e-09
9.61328e-15
-4.81914e-14
1.38067e-09
-1.68673e-13
-3.74292e-13
1.38067e-09
1.14977e-13
5.25626e-13
1.38098e-09
-8.08832e-13
4.85315e-13
1.38073e-09
-1.4971e-13
1.45681e-13
1.38011e-09
2.36693e-13
-9.11034e-13
1.38103e-09
-9.37816e-13
1.3843e-13
1.38089e-09
2.80787e-13
-1.12027e-13
1.38e-09
-8.92398e-13
1.56589e-12
1.37993e-09
7.51151e-13
-5.07095e-13
1.38035e-09
3.13495e-13
-1.84901e-12
1.38049e-09
5.42033e-13
-1.72621e-12
1.38133e-09
-3.12778e-12
1.89502e-12
1.38148e-09
-2.19859e-12
1.83994e-12
1.38108e-09
6.51674e-13
-2.51765e-13
1.3804e-09
9.6117e-13
-7.27722e-14
1.38095e-09
-1.88753e-13
8.21524e-14
1.38103e-09
3.05782e-14
4.1262e-13
1.3794e-09
-9.73959e-13
-4.592e-13
1.37981e-09
3.26839e-13
-4.06895e-13
1.37989e-09
-1.41214e-13
-1.53695e-15
1.37982e-09
-1.33493e-13
-3.30117e-14
1.37943e-09
2.7211e-14
-4.86604e-13
1.38108e-09
4.37199e-13
1.97772e-12
1.38074e-09
1.83848e-13
2.98155e-13
1.3803e-09
1.01815e-13
7.40315e-13
1.38004e-09
-1.61256e-12
9.96801e-13
1.37987e-09
4.10587e-13
-3.84194e-14
1.38018e-09
1.57862e-13
-9.25675e-13
-1.78006e-13
1.2146e-12
5.44819e-09
-4.03772e-09
1.01129e-08
-5.09798e-10
-1.49982e-09
-4.5196e-09
-3.60523e-09
3.87489e-09
-5.40705e-09
1.11418e-08
-1.84049e-09
-9.94332e-10
-1.22983e-09
-9.6983e-11
5.71265e-09
-1.8932e-09
1.26327e-09
1.73889e-10
-1.46535e-09
-7.82997e-10
-7.29543e-10
-6.40155e-09
1.02172e-08
1.99779e-10
1.68861e-10
-3.09427e-10
-2.13138e-09
1.0317e-08
-5.56872e-09
3.05476e-09
2.84562e-09
3.29494e-09
-9.92487e-09
-4.25066e-10
-1.08965e-10
6.55447e-12
4.75507e-10
5.19702e-11
-9.8963e-11
-9.76069e-12
-3.81056e-11
4.5681e-11
1.01148e-10
-3.72388e-11
2.16687e-10
-4.50167e-12
-3.88495e-11
-6.99279e-11
-7.39231e-11
8.11872e-12
3.31191e-13
1.51835e-13
-6.61925e-13
-1.85499e-13
1.39691e-09
1.74909e-12
-2.96303e-11
-2.59665e-10
-2.55634e-10
-4.31438e-10
-4.30001e-10
1.39261e-09
4.55458e-13
-2.03404e-12
1.38831e-09
6.1291e-13
2.677e-13
1.38576e-09
5.18173e-13
-1.57704e-13
1.38407e-09
1.96284e-13
3.6513e-15
1.38277e-09
7.25724e-14
-1.6187e-14
1.38188e-09
8.96757e-14
7.75716e-15
1.38209e-09
1.61614e-14
6.93593e-14
1.38166e-09
-2.1453e-13
-1.00735e-14
1.38102e-09
4.22057e-13
-1.03643e-13
1.38013e-09
6.81159e-13
-1.34057e-13
1.38047e-09
-2.83882e-13
1.97455e-14
1.38091e-09
-3.35606e-13
-9.31817e-14
1.38096e-09
-1.8572e-13
-3.28576e-14
1.38099e-09
3.80168e-13
-2.95938e-13
1.38052e-09
9.95626e-15
-3.42709e-13
1.3804e-09
-5.0868e-13
4.84534e-13
1.38056e-09
1.66374e-13
-9.06378e-14
1.37995e-09
-1.9283e-13
-1.28855e-13
1.37995e-09
-3.53203e-14
3.09571e-13
1.38056e-09
7.2349e-13
-2.22705e-12
1.38132e-09
1.09341e-12
-1.1044e-12
1.38107e-09
5.74615e-13
-2.60039e-14
1.38185e-09
8.14869e-13
-1.06495e-12
1.38044e-09
7.47509e-14
-1.81027e-12
1.38009e-09
2.1036e-13
-2.0762e-12
1.38017e-09
7.22213e-13
-1.8325e-13
1.38104e-09
3.94726e-14
2.89994e-14
1.38087e-09
8.6138e-14
-1.33682e-13
1.38057e-09
5.84831e-15
2.88823e-13
1.38021e-09
-3.08485e-13
-3.35623e-13
1.37972e-09
1.1269e-12
-3.48307e-13
1.37963e-09
-7.7522e-14
-1.43363e-15
1.37948e-09
-1.47732e-13
1.30704e-13
1.38072e-09
-3.25134e-12
2.00517e-12
1.38103e-09
9.26941e-13
-8.27487e-13
1.38068e-09
1.555e-14
4.82398e-13
1.3806e-09
-2.77261e-14
1.85183e-13
1.37989e-09
-4.61802e-14
-8.69343e-13
1.37974e-09
5.83647e-13
-3.95704e-14
1.37957e-09
2.41948e-13
6.76073e-14
-1.64659e-12
7.29333e-13
4.07243e-09
-4.58379e-09
-2.13756e-09
7.20985e-10
2.85268e-10
-5.61008e-10
2.48366e-09
2.16722e-10
3.47341e-09
-2.80497e-09
-6.76006e-10
-4.47295e-09
-2.70133e-10
-2.23594e-09
1.33385e-09
3.6416e-09
-1.05062e-09
-2.88133e-08
2.12648e-09
2.68757e-09
7.13135e-10
-3.02163e-09
-4.44582e-09
-4.06977e-09
2.2691e-10
-3.69311e-09
-1.98022e-09
-2.42763e-09
4.47755e-08
-4.71138e-10
-1.06051e-08
-1.65567e-09
5.42853e-09
2.4839e-09
-2.61517e-09
1.64021e-10
-8.34435e-11
-1.17213e-10
2.83958e-10
-2.47322e-10
-1.79848e-10
3.30435e-11
-8.28815e-11
-3.98705e-10
-1.59755e-10
-1.29035e-10
-9.86248e-11
8.13154e-11
6.06905e-11
6.10215e-11
1.4494e-10
2.32581e-10
2.99307e-10
1.3595e-10
-5.00509e-11
7.6528e-13
-5.93694e-13
2.11715e-11
2.87078e-11
1.39305e-09
-3.06607e-12
-2.64333e-11
-2.55907e-10
-2.55304e-10
-4.26466e-10
-4.24125e-10
1.39108e-09
4.30451e-12
-1.92413e-12
1.38774e-09
3.42334e-12
4.94928e-13
1.38539e-09
2.8838e-12
-4.99397e-14
1.38382e-09
1.69621e-12
3.86897e-14
1.38268e-09
1.17902e-12
-2.09153e-15
1.38181e-09
9.46506e-13
-1.27322e-14
1.38115e-09
6.68129e-13
-1.14838e-14
1.3808e-09
3.4671e-13
-2.29618e-13
1.38071e-09
4.65954e-13
3.44999e-14
1.3813e-09
-1.84196e-13
2.68462e-13
1.38099e-09
-7.37007e-14
1.04261e-13
1.38089e-09
-3.25156e-13
8.75149e-14
1.38076e-09
-2.60284e-14
-2.55507e-14
1.3807e-09
-1.23632e-13
5.61171e-13
1.38085e-09
1.09254e-13
-2.42325e-13
1.38087e-09
-9.59286e-14
-4.23369e-13
1.38074e-09
-2.40639e-13
5.37957e-13
1.3807e-09
-8.31184e-14
-7.57771e-14
1.38087e-09
7.69994e-13
-9.73725e-13
1.38143e-09
1.19415e-12
-1.03606e-12
1.38052e-09
1.94361e-13
1.80336e-12
1.38061e-09
5.6987e-13
-9.45409e-14
1.38027e-09
-1.21248e-12
2.35156e-12
1.38037e-09
-5.93915e-14
1.52225e-14
1.38046e-09
1.37897e-13
-3.62242e-14
1.38064e-09
6.40346e-15
5.10077e-13
1.38058e-09
1.31186e-13
-5.47139e-14
1.38081e-09
-1.07553e-13
-6.3204e-14
1.38059e-09
3.09839e-13
-1.20267e-13
1.38031e-09
-5.17428e-13
4.59867e-13
1.37979e-09
1.82653e-12
-2.15065e-13
1.37973e-09
-1.02647e-13
5.25573e-14
1.38129e-09
9.86684e-13
-2.73e-12
1.38025e-09
4.83669e-14
-2.29846e-12
1.3801e-09
5.47247e-14
1.00127e-12
1.38048e-09
9.36822e-14
-4.94772e-13
1.38061e-09
1.17531e-14
-1.93515e-13
1.38049e-09
1.43439e-12
-1.37498e-12
1.37922e-09
1.87343e-12
-3.85678e-14
1.37954e-09
-4.63319e-14
-4.10824e-14
-1.94933e-12
4.92019e-13
1.72561e-09
6.52476e-10
-2.00763e-09
-1.64716e-09
-4.01183e-10
-4.79959e-09
-4.14373e-10
1.02852e-09
-6.91071e-10
-2.73819e-09
1.16302e-08
-5.48195e-09
-2.72682e-09
-8.50823e-10
5.58879e-09
5.64647e-10
8.50608e-10
-2.12362e-11
-4.35299e-10
-9.58883e-10
-9.78923e-10
2.18245e-09
-5.42982e-09
4.56329e-10
1.27508e-09
1.02804e-10
1.34148e-09
-1.42851e-09
-2.20623e-09
3.73076e-09
-4.0081e-10
1.9582e-10
1.22968e-10
-8.34121e-11
6.94114e-11
-8.11602e-11
1.57256e-10
1.53977e-10
3.53735e-11
-2.65445e-10
-8.43611e-11
4.75789e-12
6.56124e-11
-2.14073e-10
1.00216e-12
-5.14915e-11
-5.80968e-11
2.64308e-11
9.65831e-11
1.34412e-10
7.9222e-11
-1.20485e-10
9.10657e-12
-4.09113e-12
5.90061e-11
5.64631e-11
1.40738e-09
2.77034e-11
-3.08036e-11
-2.55749e-10
-2.67201e-10
-4.29236e-10
-4.5518e-10
1.39506e-09
1.83283e-11
-1.74788e-12
1.38825e-09
1.00008e-11
1.85877e-13
1.38422e-09
6.71865e-12
1.61443e-13
1.38354e-09
1.70776e-12
6.30702e-13
1.38279e-09
1.90416e-12
-1.03166e-14
1.38148e-09
3.16563e-12
-9.3537e-13
1.38079e-09
2.59953e-12
-1.26934e-12
1.38079e-09
3.70334e-13
-3.82944e-14
1.38066e-09
5.27865e-13
5.64978e-14
1.3804e-09
-2.28016e-14
9.31567e-14
1.3808e-09
4.56698e-13
-9.32233e-13
1.38076e-09
-2.97075e-13
1.49699e-14
1.3811e-09
-6.35308e-13
2.71687e-13
1.38078e-09
1.99491e-13
2.03298e-15
1.38083e-09
-2.88731e-14
8.8959e-14
1.3809e-09
-4.30371e-13
2.70044e-13
1.38127e-09
-2.14272e-13
-3.97542e-13
1.38124e-09
-3.84826e-14
-1.44386e-14
1.38105e-09
1.02286e-13
8.58459e-13
1.38044e-09
2.94421e-13
1.50415e-12
1.3804e-09
3.6251e-13
-1.35378e-13
1.38106e-09
1.40163e-13
-2.43596e-13
1.38024e-09
-6.27036e-13
2.26251e-13
1.38024e-09
2.89768e-14
-1.08966e-13
1.38039e-09
-7.20504e-15
-2.75696e-14
1.38036e-09
-7.92377e-15
2.05292e-14
1.38031e-09
1.08824e-13
5.29306e-14
1.38019e-09
-2.53887e-14
4.25979e-15
1.38014e-09
-2.62904e-14
3.49567e-13
1.38e-09
-2.43553e-13
-1.5841e-13
1.38096e-09
-1.17544e-14
8.41135e-13
1.38099e-09
-4.53812e-13
2.82183e-13
1.37992e-09
-2.27858e-12
4.30672e-12
1.38031e-09
-2.83883e-12
2.45984e-12
1.38016e-09
2.82253e-13
-1.0239e-13
1.38045e-09
-3.84135e-13
1.59504e-13
1.38075e-09
-3.31571e-13
1.90844e-14
1.38072e-09
-1.35939e-12
2.80633e-12
1.37934e-09
3.50475e-12
-2.75459e-13
1.37956e-09
-8.97858e-13
6.24266e-13
-1.8652e-13
-9.16444e-13
1.41509e-09
-2.59663e-10
-3.11912e-10
2.81191e-09
-1.95955e-09
-5.89616e-09
8.60673e-09
-3.56299e-09
7.21476e-10
4.18226e-09
1.48429e-09
8.25882e-10
4.74154e-10
6.08033e-10
-2.4894e-09
-1.32718e-08
2.67999e-08
-3.41278e-08
1.48193e-08
-3.05692e-09
-1.22139e-08
-9.03866e-09
2.51701e-08
-8.6069e-10
-2.58373e-10
1.56647e-10
5.99676e-10
7.53502e-11
-5.73298e-10
-2.09856e-10
5.11189e-10
-5.33613e-10
-3.39246e-10
5.71525e-10
-3.94856e-11
-2.71635e-11
-1.96716e-10
-2.2076e-11
-2.21956e-11
-8.54125e-11
-3.80259e-11
1.1533e-10
1.02165e-10
1.1807e-10
9.55095e-11
-1.5655e-10
-3.07142e-12
2.51897e-12
1.03152e-10
5.39507e-11
1.38276e-09
3.81082e-11
-2.87563e-11
-2.61925e-10
-2.44273e-10
-4.46725e-10
-4.11509e-10
1.38234e-09
2.02655e-11
-1.56533e-12
1.38079e-09
1.11969e-11
2.95378e-13
1.38115e-09
6.53842e-12
-2.29368e-13
1.38028e-09
3.10716e-12
-5.78397e-13
1.38011e-09
1.81841e-12
2.1997e-13
1.38082e-09
1.43071e-12
9.94553e-13
1.38088e-09
1.28609e-12
1.23451e-12
1.38052e-09
6.7691e-13
3.55351e-14
1.381e-09
-6.89616e-15
4.51834e-14
1.38076e-09
3.30081e-13
-1.27623e-13
1.37958e-09
6.98292e-13
9.33449e-13
1.3821e-09
-6.35513e-12
3.54625e-12
1.38103e-09
7.16295e-13
-2.8337e-13
1.3809e-09
3.3399e-13
-2.51948e-15
1.38063e-09
4.63186e-13
-2.14107e-13
1.38049e-09
-1.04747e-14
-2.79367e-13
1.38127e-09
9.36675e-13
-1.92245e-12
1.38126e-09
-1.56775e-14
-1.86007e-14
1.38128e-09
1.47638e-13
-6.48068e-14
1.38109e-09
8.79218e-13
-3.93195e-13
1.37998e-09
3.76766e-12
-2.30184e-12
1.37973e-09
-8.65543e-13
1.23968e-12
1.38081e-09
-5.91817e-13
-1.12702e-12
1.38069e-09
1.60683e-13
-3.04002e-14
1.38054e-09
1.69364e-13
-4.26147e-14
1.38029e-09
7.24017e-13
-5.13792e-13
1.38032e-09
9.77143e-14
-4.09038e-14
1.38024e-09
7.36842e-14
-5.44426e-14
1.3804e-09
2.5323e-14
-2.34984e-13
1.38037e-09
-6.78785e-13
4.26891e-13
1.38078e-09
-5.90559e-13
1.3396e-13
1.38093e-09
-3.69261e-13
-2.67666e-13
1.38044e-09
-4.13835e-13
-1.41062e-12
1.37975e-09
-3.57617e-13
-1.82223e-12
1.3797e-09
6.15628e-13
-3.17088e-13
1.37956e-09
-3.25124e-13
5.59521e-14
1.37936e-09
-9.11672e-14
-6.02682e-14
1.37927e-09
1.41089e-12
-2.70087e-12
1.38125e-09
1.18705e-12
3.19232e-13
1.38096e-09
-4.574e-13
-1.59275e-13
-8.33816e-13
1.93402e-12
-3.93588e-09
-2.99779e-10
5.73337e-09
-1.30675e-09
3.13082e-09
-1.84928e-09
-1.75006e-09
2.16036e-09
-4.7774e-08
4.1943e-08
5.16988e-08
-4.75618e-08
8.50385e-10
3.21786e-09
-5.63287e-09
-8.26462e-10
2.39108e-09
-8.72566e-11
1.8893e-09
-9.43003e-09
-6.11882e-09
5.59294e-08
-6.9419e-08
-2.97204e-08
5.22686e-08
4.78101e-09
-1.48607e-09
1.39428e-09
2.49174e-09
-3.33618e-09
5.16978e-09
-8.9814e-09
4.65607e-09
2.32566e-10
5.85754e-10
5.4888e-10
8.44042e-10
-2.21124e-09
-2.01275e-10
6.05306e-11
5.94231e-11
-3.41635e-10
-2.79465e-10
4.90895e-10
-1.35277e-10
1.03811e-10
8.11929e-11
6.39403e-11
9.78604e-11
-1.3634e-10
-1.08256e-11
7.37039e-12
1.01573e-10
3.82223e-11
1.35265e-09
1.36187e-11
-2.4509e-11
-2.43827e-10
-2.42843e-10
-4.07483e-10
-4.0952e-10
1.36648e-09
7.90617e-12
-1.54575e-12
1.37253e-09
4.62349e-12
4.57946e-13
1.37625e-09
2.79003e-12
-2.70738e-14
1.37786e-09
1.44412e-12
-2.61993e-15
1.379e-09
8.40967e-13
-1.99463e-13
1.3794e-09
1.14886e-12
-1.56971e-13
1.38023e-09
3.93161e-13
4.3459e-14
1.38062e-09
2.61704e-13
2.54786e-15
1.38036e-09
1.90399e-13
5.27379e-14
1.38116e-09
-5.04237e-13
2.12166e-14
1.38196e-09
-1.67334e-13
6.54586e-14
1.37962e-09
-4.80187e-13
-3.53384e-12
1.38042e-09
-1.0169e-13
1.61773e-14
1.38065e-09
1.63326e-13
-5.33236e-14
1.38094e-09
-2.00533e-14
1.92407e-13
1.38095e-09
7.92051e-14
-8.76854e-14
1.38037e-09
-3.85956e-13
1.89803e-12
1.38072e-09
-3.39596e-13
-2.34092e-14
1.38137e-09
-4.9449e-13
-7.60067e-15
1.37924e-09
6.67018e-12
-3.66196e-12
1.38046e-09
4.66102e-13
2.07673e-12
1.38089e-09
-3.57199e-13
-9.50031e-13
1.38071e-09
-8.80175e-14
-3.42448e-13
1.38067e-09
1.14758e-13
7.08781e-14
1.38062e-09
1.95827e-14
1.74809e-13
1.38071e-09
4.03464e-15
6.14293e-13
1.38058e-09
2.51855e-13
-5.23702e-14
1.38039e-09
6.54136e-14
1.6406e-13
1.38039e-09
-2.85051e-16
-4.59439e-15
1.37993e-09
2.6298e-13
-5.14519e-13
1.38103e-09
1.01626e-12
-2.74074e-12
1.38045e-09
1.33051e-13
4.27945e-14
1.38029e-09
-1.41149e-13
-1.48126e-13
1.38002e-09
-3.26704e-13
2.06486e-13
1.37975e-09
4.22493e-13
4.28807e-13
1.37966e-09
-2.44422e-13
-1.25713e-14
1.37947e-09
9.34955e-14
-1.56884e-14
1.37983e-09
-7.56814e-13
1.77968e-12
1.38026e-09
6.92677e-13
5.05839e-14
1.38046e-09
-1.22262e-13
-5.443e-13
-1.91268e-13
-1.43017e-12
-4.86254e-09
-8.94534e-10
8.67364e-09
-2.72559e-09
-1.58284e-09
5.77255e-10
-5.498e-10
1.02182e-09
4.08385e-10
5.75022e-09
-6.02037e-08
7.57129e-08
-2.9707e-08
2.2945e-08
-9.27656e-09
-6.6925e-09
2.07278e-09
-4.74543e-10
1.18186e-09
-1.64542e-09
-3.27553e-10
1.23015e-09
-4.39038e-10
-2.9037e-12
-1.11418e-09
-3.85315e-09
5.79155e-09
-8.21332e-10
7.2175e-10
-2.67613e-09
-3.96418e-10
-8.28967e-10
3.17977e-09
3.80821e-10
1.87178e-09
-2.05353e-10
1.9761e-10
-2.24486e-09
-3.93803e-11
-1.64794e-11
1.98113e-11
-5.28117e-11
8.88602e-11
-4.10712e-11
-1.26504e-12
1.28071e-12
1.52742e-11
2.57813e-11
1.34732e-09
-1.17557e-11
-2.62745e-11
-2.43192e-10
-2.39024e-10
-4.15252e-10
-3.98236e-10
1.36215e-09
-5.35042e-12
-1.67853e-12
1.36971e-09
-3.37437e-12
3.55412e-13
1.37424e-09
-1.75318e-12
-4.28362e-14
1.37661e-09
-1.0025e-12
2.15284e-14
1.37802e-09
-6.16733e-13
1.96824e-15
1.37967e-09
-1.13609e-12
6.00556e-13
1.38012e-09
-1.00382e-13
1.88746e-14
1.38031e-09
-1.06437e-12
1.11239e-12
1.38074e-09
-4.39305e-13
1.87361e-13
1.38037e-09
-1.853e-12
1.71015e-12
1.38094e-09
-5.98023e-13
-1.46208e-13
1.38071e-09
-2.29253e-13
-1.20562e-14
1.38064e-09
2.1596e-14
-5.38634e-14
1.38067e-09
-5.10372e-13
6.48153e-13
1.38078e-09
-1.43962e-13
1.50971e-14
1.38062e-09
8.70678e-14
1.542e-13
1.38036e-09
-4.89854e-13
3.6785e-13
1.38004e-09
1.11924e-13
-1.3043e-13
1.37915e-09
3.63683e-13
3.36164e-14
1.38117e-09
6.74735e-13
3.96835e-12
1.38111e-09
9.05072e-13
-3.81713e-13
1.38165e-09
-2.77903e-12
1.87006e-12
1.38132e-09
2.64601e-13
-3.97912e-14
1.38058e-09
8.84266e-13
-4.29306e-14
1.38053e-09
1.50765e-13
-1.03087e-13
1.38068e-09
-6.84111e-14
-1.02051e-13
1.38051e-09
1.02426e-12
-6.32889e-13
1.38059e-09
-5.06041e-14
1.24026e-14
1.38051e-09
-2.22134e-13
2.70857e-13
1.38096e-09
-1.87614e-13
-3.48074e-14
1.37984e-09
-4.91629e-13
2.59599e-12
1.38e-09
-5.63156e-14
-1.26964e-14
1.37995e-09
3.91817e-15
-1.25914e-13
1.37986e-09
-9.90459e-14
-1.69683e-13
1.38029e-09
1.6561e-13
-1.97889e-13
1.3799e-09
1.3917e-13
-2.5529e-14
1.37932e-09
6.14588e-13
3.09013e-14
1.37979e-09
-1.01993e-12
-2.27353e-13
1.3797e-09
5.02726e-13
2.66548e-13
1.38092e-09
-2.93604e-12
1.5804e-12
-3.26488e-13
-5.32564e-13
-1.24805e-09
1.80661e-09
-9.79904e-09
5.06987e-09
9.27114e-10
-1.3656e-09
4.80004e-09
-1.77479e-09
-2.43943e-09
8.96744e-10
3.3582e-09
-4.07214e-11
-2.3256e-10
-1.72128e-09
2.38553e-09
-3.08957e-09
2.65788e-09
-3.30597e-10
2.52764e-09
1.02355e-09
-7.25261e-10
-2.49529e-09
7.5304e-10
-4.95011e-10
-7.9936e-10
-6.37342e-10
1.17867e-09
-5.44156e-11
3.43759e-10
8.47553e-10
9.03078e-10
-2.03997e-09
-9.72566e-11
3.17293e-11
-3.15514e-11
2.95268e-11
6.75519e-11
-3.23166e-11
4.87431e-13
1.76409e-10
-5.28956e-12
1.30327e-11
-3.20656e-11
-6.07244e-11
-5.95334e-11
1.35027e-09
-5.24199e-11
-2.31811e-11
-2.42171e-10
-2.39963e-10
-4.05251e-10
-3.99084e-10
1.36409e-09
-1.75314e-11
-1.75107e-12
1.3713e-09
-1.11908e-11
5.30712e-13
1.3752e-09
-5.7258e-12
1.54915e-14
1.37732e-09
-3.21958e-12
3.83004e-14
1.37891e-09
-2.27886e-12
2.43264e-14
1.37934e-09
-1.2035e-12
-3.92943e-13
1.38006e-09
-8.11529e-13
-4.28991e-14
1.38056e-09
-6.47422e-13
-9.32383e-13
1.38046e-09
-1.03847e-14
-3.41027e-13
1.3807e-09
-2.95105e-13
-1.81229e-12
1.38044e-09
-1.37502e-13
-2.01506e-13
1.38042e-09
-2.08823e-13
1.4647e-15
1.38046e-09
-2.5983e-13
2.41933e-13
1.38068e-09
-2.34126e-13
-4.86093e-13
1.3805e-09
7.263e-14
-3.47251e-14
1.38074e-09
-1.94142e-14
-1.3315e-13
1.38108e-09
-5.0272e-13
-3.23178e-13
1.38043e-09
1.4782e-12
-7.12745e-13
1.38091e-09
-1.31309e-13
1.36776e-14
1.38115e-09
3.20718e-13
1.06723e-13
1.3811e-09
1.98484e-13
7.54644e-13
1.38033e-09
-1.05887e-13
-1.92164e-12
1.38032e-09
2.55406e-13
1.32238e-14
1.38121e-09
1.0684e-12
-1.0913e-12
1.3803e-09
-1.23129e-14
1.04483e-12
1.38041e-09
4.9198e-14
-2.44198e-13
1.38049e-09
2.23684e-13
6.8495e-13
1.38036e-09
3.55364e-15
4.63243e-14
1.3808e-09
-4.93364e-13
-1.95298e-13
1.38044e-09
8.53947e-13
-7.11162e-13
1.3804e-09
-4.09448e-13
-7.66682e-14
1.38043e-09
-4.32205e-13
3.05725e-13
1.37983e-09
2.24183e-12
-1.66562e-12
1.38008e-09
-3.26082e-13
-6.48065e-14
1.37994e-09
3.44984e-13
-6.41352e-14
1.38029e-09
-5.94912e-13
3.51769e-13
1.38061e-09
2.15372e-13
6.01234e-14
1.37938e-09
3.93384e-13
-2.10787e-13
1.37965e-09
3.39611e-13
-1.22227e-13
1.37968e-09
1.0495e-12
-4.02574e-12
-1.87896e-12
3.47461e-14
2.54387e-09
5.39143e-10
-5.25982e-09
2.36778e-09
-9.36899e-10
-6.55168e-10
3.0415e-09
-2.77116e-09
1.32172e-09
-2.6359e-09
1.88145e-09
1.50059e-09
8.50219e-09
-2.73348e-09
-1.97346e-09
-2.11427e-09
-2.42713e-09
6.52098e-11
3.93796e-09
-9.55677e-10
-1.08543e-09
-8.14098e-10
5.77101e-11
-3.76452e-10
-8.29226e-10
-2.98829e-09
9.60381e-10
1.76447e-10
-9.1238e-10
4.22794e-10
8.91367e-10
2.80802e-10
1.16888e-09
-2.9092e-10
-3.41894e-10
2.13102e-10
1.39669e-10
2.80046e-10
-8.88502e-11
9.07325e-12
-4.22498e-12
-9.53723e-12
9.35392e-11
1.41601e-09
-2.899e-11
-2.44693e-10
-2.6903e-10
-4.16558e-10
-4.49711e-10
8.67173e-12
2.18358e-12
1.16043e-11
1.56836e-12
1.38629e-09
-1.20666e-12
1.38246e-09
-4.08767e-13
1.38048e-09
2.00289e-14
1.37966e-09
-7.22343e-14
1.37888e-09
-3.32266e-15
1.38066e-09
4.21953e-13
1.38084e-09
-1.21131e-13
1.38051e-09
-1.92009e-13
1.38044e-09
-2.12305e-13
1.38071e-09
8.27708e-13
1.38074e-09
-1.50245e-13
1.3804e-09
7.78499e-13
1.38029e-09
-6.67983e-13
1.38053e-09
-1.59919e-13
1.38052e-09
-1.26156e-14
1.3806e-09
1.96342e-14
1.38052e-09
-2.11013e-13
1.38076e-09
1.10908e-12
1.38094e-09
9.35096e-13
1.38079e-09
-4.23721e-15
1.38132e-09
1.17196e-12
1.38104e-09
-1.71766e-13
1.38085e-09
-1.95262e-12
1.38002e-09
-1.10758e-12
1.38038e-09
1.05618e-12
1.38056e-09
-3.71818e-13
1.38052e-09
2.70096e-13
1.38052e-09
1.50834e-13
1.38048e-09
-2.09477e-14
1.38012e-09
1.32081e-14
1.38074e-09
7.55441e-13
1.3804e-09
1.34139e-13
1.38029e-09
-2.71653e-13
1.38069e-09
1.86248e-12
1.38017e-09
-1.54039e-12
1.38005e-09
7.19834e-14
1.37975e-09
-3.38052e-13
1.38017e-09
-3.22118e-13
1.3805e-09
7.68325e-14
1.38103e-09
-2.35775e-13
1.37969e-09
2.58971e-12
2.85333e-14
-2.91974e-08
-9.16403e-10
-7.31129e-08
5.33141e-09
4.42505e-09
2.91779e-10
3.23507e-09
-6.2804e-08
7.16093e-08
7.17933e-08
6.59421e-09
-1.91925e-09
2.1299e-09
-1.53158e-10
-5.96376e-09
-1.7368e-09
-6.04911e-09
-3.76797e-09
4.21767e-09
5.39305e-09
7.95925e-09
-1.16968e-08
7.05048e-10
1.21305e-09
-7.1499e-10
-7.0601e-10
2.09711e-09
1.09709e-08
-6.684e-10
-1.26176e-08
-1.53545e-09
-3.88497e-09
-7.66182e-10
2.66796e-10
5.53736e-10
4.27935e-09
-1.358e-09
-1.33932e-09
7.1012e-10
1.09209e-09
1.39251e-09
-1.14695e-10
-1.16959e-10
1.60175e-11
5.4916e-11
1.32489e-10
2.3742e-09
-1.02922e-11
3.30671e-11
-5.99096e-10
-6.07287e-10
-5.99131e-10
-6.07309e-10
-1.98266e-11
-1.02931e-11
-1.98179e-11
2.32129e-09
2.49487e-11
1.40294e-12
2.31374e-09
-9.01976e-12
2.59917e-13
2.3069e-09
-4.73277e-12
-4.40909e-14
2.30553e-09
-4.32881e-12
-3.76578e-13
2.30598e-09
-3.1545e-12
-4.78589e-13
2.30387e-09
-3.24258e-12
6.32222e-13
2.30334e-09
-1.29727e-12
2.81741e-13
2.30363e-09
-1.68778e-12
7.24641e-13
2.3034e-09
-2.61506e-13
4.15203e-15
2.30325e-09
-2.91917e-13
-3.42411e-13
2.30348e-09
-6.38294e-13
-3.29723e-13
2.30367e-09
-3.38901e-14
2.52422e-13
2.30357e-09
8.84508e-14
2.70156e-13
2.30336e-09
4.83798e-13
-3.36435e-13
2.30346e-09
-2.00091e-12
8.59323e-13
2.30349e-09
1.44521e-13
-7.42435e-14
2.30406e-09
-1.23003e-12
8.12299e-14
2.3036e-09
8.16055e-13
4.3845e-13
2.3041e-09
2.8302e-13
7.39555e-14
2.30422e-09
1.2848e-14
-7.66454e-14
2.3035e-09
-4.98694e-13
4.41813e-13
2.30389e-09
2.46339e-13
3.37196e-14
2.30285e-09
5.58951e-12
-1.50781e-12
2.30311e-09
4.54799e-12
-2.96786e-12
2.30326e-09
-4.71976e-13
-2.59221e-13
2.30414e-09
3.10321e-13
-4.15725e-13
2.30372e-09
1.17496e-13
-1.95318e-14
2.30321e-09
3.49382e-13
2.22048e-13
2.30234e-09
8.61594e-13
7.30662e-14
2.30216e-09
-1.55399e-12
8.33317e-13
2.30463e-09
-8.09465e-13
-1.73132e-12
2.30375e-09
7.28344e-13
-1.16146e-13
2.30343e-09
9.41981e-14
4.00936e-14
2.30375e-09
-2.84094e-13
-4.16549e-14
2.30485e-09
-1.21634e-12
1.27052e-12
2.30211e-09
4.59691e-12
-3.6245e-12
2.30227e-09
-6.76045e-13
2.11789e-13
2.30235e-09
3.98576e-13
-9.4659e-13
2.3038e-09
-1.26136e-12
-4.80768e-13
2.30335e-09
2.27235e-13
1.69741e-13
2.30224e-09
7.56864e-13
8.99675e-13
-5.86375e-13
-4.45908e-13
8.54757e-10
-2.39799e-08
2.22959e-08
4.72671e-09
2.78313e-09
9.82805e-10
-3.99284e-09
3.29303e-09
3.46407e-09
3.37628e-09
-9.77604e-09
-8.70739e-09
4.89624e-09
2.28302e-09
1.71646e-09
3.29309e-09
-1.55647e-08
-1.60341e-09
-1.30589e-09
-1.12368e-09
-1.10065e-09
-1.61588e-09
8.95142e-09
-1.0511e-08
1.97205e-08
-5.20746e-09
-6.71297e-09
-7.66854e-09
4.67691e-10
9.30005e-10
7.11587e-10
2.58829e-09
1.00062e-08
-1.26579e-09
5.34544e-09
-4.25891e-10
-8.13139e-09
1.46136e-11
-4.32849e-09
-1.4461e-10
-1.97237e-09
1.13475e-09
-1.7976e-09
-4.67438e-10
-4.75384e-10
1.11923e-09
2.48251e-09
2.3616e-09
-9.04367e-10
-6.72538e-09
2.97405e-09
1.06239e-08
-1.13618e-08
2.56351e-09
5.05959e-09
-2.02257e-09
-2.37014e-09
-1.27942e-09
1.36025e-11
-4.26214e-11
-7.97142e-10
-2.2734e-10
2.33292e-09
-6.04481e-11
9.09447e-11
-4.55071e-11
-1.11284e-11
-6.40104e-11
9.01493e-11
-1.40446e-10
5.93337e-10
-2.21778e-11
-8.75942e-13
3.84275e-13
-1.44698e-10
-1.45675e-10
-1.50148e-10
2.30711e-09
-1.32268e-11
2.41328e-11
-5.71981e-10
-5.8667e-10
-5.7198e-10
-5.86688e-10
2.30494e-09
-1.09387e-11
2.01072e-12
2.30732e-09
-6.26123e-12
-4.76473e-13
2.30674e-09
-3.93286e-12
4.59507e-14
2.30602e-09
-2.63047e-12
5.81111e-14
2.30472e-09
-2.11029e-12
4.85498e-14
2.30468e-09
-1.33453e-12
5.06287e-15
2.3033e-09
1.3816e-13
-4.64171e-13
2.30378e-09
-8.38615e-13
3.62418e-13
2.30395e-09
-6.43957e-13
1.3332e-13
2.3037e-09
-6.70246e-13
2.07031e-13
2.30359e-09
4.05803e-14
5.82826e-15
2.30365e-09
-2.48388e-15
-9.02243e-15
2.30351e-09
-1.39631e-13
3.93285e-13
2.30354e-09
2.43574e-13
-1.73362e-12
2.30425e-09
6.40059e-13
-7.11654e-13
2.30369e-09
-1.46324e-13
-3.79358e-13
2.30271e-09
3.16171e-13
5.75509e-13
2.30393e-09
-1.09269e-12
2.96687e-13
2.30381e-09
-7.88697e-14
8.87995e-14
2.30243e-09
4.94428e-12
-2.50102e-12
2.30228e-09
-4.38139e-13
3.07448e-13
2.30327e-09
5.83896e-13
2.13377e-12
2.30347e-09
8.25795e-13
1.75756e-12
2.30472e-09
-2.40754e-12
2.54234e-12
2.30511e-09
9.53639e-13
7.59241e-13
2.30439e-09
9.35728e-13
-4.15628e-13
2.30333e-09
1.42245e-12
-1.45328e-13
2.30417e-09
8.24286e-14
-4.80112e-14
2.30426e-09
-5.78467e-13
-7.24617e-13
2.30189e-09
-7.43132e-13
1.76812e-12
2.30226e-09
5.29546e-13
-6.53072e-13
2.30243e-09
-1.40185e-13
-1.12147e-14
2.30223e-09
-1.9414e-13
4.48266e-16
2.30201e-09
-9.80832e-13
-5.68817e-13
2.30436e-09
3.71606e-13
3.78957e-12
2.30386e-09
3.89199e-13
-3.32718e-13
2.30331e-09
1.24007e-13
1.51847e-12
2.30285e-09
7.34152e-13
-5.83234e-13
2.3026e-09
6.23756e-13
-2.13555e-13
2.30299e-09
1.94511e-13
-7.63861e-13
-2.72451e-13
1.98284e-13
1.68967e-08
-1.13909e-08
-1.68726e-08
1.5151e-08
-4.62133e-09
1.62079e-08
-1.79053e-10
8.83781e-10
1.03464e-09
-4.38586e-10
3.85997e-09
-1.29368e-09
2.69732e-09
-1.09922e-09
-1.31611e-09
-6.44313e-10
2.36656e-09
3.88161e-09
1.24921e-09
2.71197e-09
4.36703e-09
7.01075e-09
8.19871e-09
2.19411e-09
-1.22255e-09
-1.99287e-09
-3.88694e-09
2.03508e-11
1.5175e-09
-1.34966e-08
8.66776e-09
-3.92732e-09
-2.74124e-10
2.55905e-10
-4.58581e-11
-2.92365e-10
4.28376e-09
-5.5135e-12
4.01216e-11
-1.80259e-11
-5.99671e-11
-6.32089e-11
1.06594e-10
-1.56487e-10
6.33184e-10
6.30354e-13
-7.28211e-12
-1.59976e-10
-1.6232e-10
-1.64323e-10
2.37654e-11
-1.0134e-12
-1.07882e-12
-2.62198e-12
-2.47723e-12
2.3275e-09
-5.38294e-12
3.01474e-11
-5.99199e-10
-5.98359e-10
-5.99201e-10
-5.98396e-10
2.31663e-09
-4.15363e-12
1.98315e-12
2.31283e-09
-2.02749e-12
-2.44405e-13
2.30963e-09
-1.09709e-12
1.22064e-13
2.30776e-09
-8.44912e-13
1.52683e-14
2.30614e-09
-5.89075e-13
1.9399e-14
2.30506e-09
-2.84312e-13
-8.77051e-15
2.30554e-09
-2.54442e-13
-6.03492e-14
2.30495e-09
3.50539e-13
-6.44522e-13
2.30407e-09
1.65438e-13
-5.2096e-14
2.30267e-09
6.32323e-13
-4.65461e-14
2.30337e-09
-6.18174e-13
-1.70887e-14
2.30388e-09
-6.21976e-13
1.86618e-14
2.30419e-09
-4.64257e-13
-9.21983e-15
2.30399e-09
-6.18984e-13
7.72999e-13
2.30342e-09
9.70955e-14
7.77255e-13
2.30295e-09
-8.30609e-13
1.64824e-12
2.30326e-09
3.87525e-14
-1.24164e-13
2.30232e-09
-9.81882e-15
-2.69918e-13
2.30222e-09
6.20083e-13
-2.95381e-13
2.30343e-09
-7.02585e-13
2.19654e-12
2.30467e-09
-4.0391e-12
1.24114e-12
2.30434e-09
1.15089e-12
-2.94738e-13
2.30576e-09
-2.61295e-12
9.20261e-13
2.30359e-09
3.30275e-13
-2.41747e-12
2.30272e-09
3.96097e-13
-7.01265e-13
2.30293e-09
5.49488e-14
4.22283e-13
2.30429e-09
1.14641e-13
-8.08023e-14
2.30399e-09
1.81742e-13
-3.60146e-15
2.30363e-09
2.97288e-15
-1.40152e-16
2.30301e-09
-5.30532e-13
-1.07874e-14
2.30207e-09
-3.90271e-13
1.43419e-12
2.30194e-09
-8.26242e-14
2.14655e-16
2.30195e-09
-3.05683e-13
1.52526e-13
2.30381e-09
1.93006e-12
-2.83049e-12
2.30429e-09
-1.82686e-12
8.26119e-13
2.30397e-09
1.04418e-12
8.51918e-14
2.30383e-09
6.82652e-13
-2.81667e-13
2.30256e-09
1.14328e-13
9.79632e-13
2.30217e-09
8.81237e-13
6.3054e-14
2.30211e-09
4.1025e-13
-9.92689e-14
-2.27727e-12
1.39592e-12
1.39075e-09
-7.16691e-10
-9.60179e-09
-7.04626e-10
-7.0257e-10
-6.9212e-10
6.35827e-10
-8.76311e-10
-1.20595e-09
-4.63337e-09
-1.50023e-09
-3.30682e-09
3.64858e-09
1.49314e-09
1.95257e-09
1.42279e-09
-2.27771e-10
-4.45067e-10
-1.40782e-09
-7.05038e-10
-2.77729e-09
-1.61912e-09
-1.9139e-09
-2.17969e-08
7.21071e-09
2.17174e-09
4.21538e-10
1.00222e-09
-1.1091e-08
2.84768e-10
1.52366e-09
-4.1743e-10
-6.86147e-10
3.91908e-10
3.48071e-10
-1.16006e-09
-1.32044e-10
5.26269e-10
1.32457e-10
1.50404e-10
8.60612e-11
5.3165e-11
1.70392e-11
6.1923e-11