/*--------------------------------*- C++ -*----------------------------------*\
| =========                 |                                                 |
| \\      /  F ield         | OpenFOAM: The Open Source CFD Toolbox           |
|  \\    /   O peration     | Version:  5.0                                   |
|   \\  /    A nd           | Web:      www.OpenFOAM.org                      |
|    \\/     M anipulation  |                                                 |
\*---------------------------------------------------------------------------*/
FoamFile
{
    version     2.0;
    format      ascii;
    class       volScalarField;
    location    "4";
    object      rAU;
}
// * * * * * * * * * * * * * * * * * * * * * * * * * * * * * * * * * * * * * //

dimensions      [-1 3 1 0 0 0 0];

internalField   nonuniform List<scalar> 
8941
(
7.52992e-07
4.1474e-07
8.8903e-07
8.00045e-07
6.82487e-07
6.7795e-07
4.80941e-08
3.92286e-07
3.93663e-07
3.94697e-07
3.95731e-07
3.96763e-07
3.97795e-07
3.98826e-07
3.99857e-07
4.00886e-07
4.01916e-07
4.02944e-07
4.03971e-07
4.04999e-07
4.06025e-07
4.0705e-07
4.08075e-07
4.09099e-07
4.10122e-07
4.11145e-07
4.12167e-07
4.13188e-07
4.14208e-07
4.15227e-07
4.16246e-07
4.17264e-07
4.18281e-07
4.19298e-07
4.20314e-07
4.21328e-07
4.22342e-07
4.23356e-07
4.24368e-07
4.25379e-07
4.2639e-07
4.274e-07
4.28409e-07
4.29418e-07
4.30425e-07
4.31432e-07
4.32438e-07
4.33442e-07
4.34446e-07
4.36222e-07
8.89097e-07
1.94852e-07
9.70454e-07
9.64729e-07
7.47965e-07
6.80182e-07
9.56836e-08
1.29685e-07
3.93454e-07
3.94697e-07
3.95731e-07
3.96763e-07
3.97795e-07
3.98826e-07
3.99857e-07
4.00886e-07
4.01916e-07
4.02944e-07
4.03971e-07
4.04999e-07
4.06025e-07
4.0705e-07
4.08075e-07
4.09099e-07
4.10122e-07
4.11145e-07
4.12167e-07
4.13188e-07
4.14208e-07
4.15228e-07
4.16246e-07
4.17264e-07
4.18281e-07
4.19298e-07
4.20314e-07
4.21328e-07
4.22342e-07
4.23356e-07
4.24368e-07
4.25379e-07
4.2639e-07
4.274e-07
4.28409e-07
4.29418e-07
4.30425e-07
4.31431e-07
4.32438e-07
4.33442e-07
4.34446e-07
4.36222e-07
9.70423e-07
9.61077e-07
9.54991e-07
9.58132e-07
7.47301e-07
6.57004e-07
6.97227e-07
1.29662e-07
3.93454e-07
3.94697e-07
3.9573e-07
3.96763e-07
3.97795e-07
3.98826e-07
3.99857e-07
4.00886e-07
4.01916e-07
4.02944e-07
4.03971e-07
4.04999e-07
4.06025e-07
4.0705e-07
4.08075e-07
4.09099e-07
4.10122e-07
4.11145e-07
4.12167e-07
4.13188e-07
4.14208e-07
4.15227e-07
4.16246e-07
4.17264e-07
4.18281e-07
4.19298e-07
4.20314e-07
4.21328e-07
4.22342e-07
4.23356e-07
4.24368e-07
4.25379e-07
4.2639e-07
4.274e-07
4.28409e-07
4.29418e-07
4.30425e-07
4.31431e-07
4.32438e-07
4.33442e-07
4.34446e-07
4.36222e-07
9.7052e-07
9.63767e-07
8.81249e-07
9.2726e-07
8.84881e-07
6.38241e-07
9.01719e-07
3.52422e-08
3.93454e-07
3.94697e-07
3.9573e-07
3.96763e-07
3.97795e-07
3.98826e-07
3.99857e-07
4.00886e-07
4.01916e-07
4.02944e-07
4.03971e-07
4.04999e-07
4.06025e-07
4.0705e-07
4.08075e-07
4.09099e-07
4.10122e-07
4.11145e-07
4.12167e-07
4.13188e-07
4.14208e-07
4.15227e-07
4.16246e-07
4.17264e-07
4.18281e-07
4.19298e-07
4.20314e-07
4.21328e-07
4.22342e-07
4.23356e-07
4.24368e-07
4.25379e-07
4.2639e-07
4.274e-07
4.28409e-07
4.29418e-07
4.30425e-07
4.31432e-07
4.32438e-07
4.33442e-07
4.34446e-07
4.36222e-07
9.56293e-07
8.89527e-07
6.84521e-07
7.92309e-07
6.57359e-07
6.55157e-07
9.02956e-07
4.99145e-08
3.93453e-07
3.94696e-07
3.9573e-07
3.96763e-07
3.97795e-07
3.98826e-07
3.99856e-07
4.00886e-07
4.01916e-07
4.02944e-07
4.03971e-07
4.04999e-07
4.06025e-07
4.0705e-07
4.08075e-07
4.09099e-07
4.10122e-07
4.11145e-07
4.12167e-07
4.13188e-07
4.14208e-07
4.15228e-07
4.16246e-07
4.17264e-07
4.18281e-07
4.19298e-07
4.20314e-07
4.21328e-07
4.22342e-07
4.23356e-07
4.24368e-07
4.25379e-07
4.2639e-07
4.274e-07
4.28409e-07
4.29418e-07
4.30425e-07
4.31432e-07
4.32438e-07
4.33442e-07
4.34446e-07
4.36222e-07
8.85505e-07
7.72253e-07
7.93748e-07
8.28859e-07
6.71447e-07
5.16879e-07
9.02925e-07
6.46003e-08
3.93453e-07
3.94696e-07
3.9573e-07
3.96763e-07
3.97795e-07
3.98826e-07
3.99857e-07
4.00886e-07
4.01916e-07
4.02944e-07
4.03971e-07
4.04999e-07
4.06025e-07
4.0705e-07
4.08075e-07
4.09099e-07
4.10122e-07
4.11145e-07
4.12167e-07
4.13188e-07
4.14208e-07
4.15227e-07
4.16246e-07
4.17264e-07
4.18281e-07
4.19298e-07
4.20314e-07
4.21328e-07
4.22342e-07
4.23356e-07
4.24368e-07
4.25379e-07
4.2639e-07
4.274e-07
4.28409e-07
4.29418e-07
4.30425e-07
4.31432e-07
4.32438e-07
4.33442e-07
4.34446e-07
4.36222e-07
8.97723e-07
7.59136e-07
1.71233e-07
7.36427e-07
6.70838e-07
6.78151e-07
9.02351e-07
4.24563e-08
3.93454e-07
3.94697e-07
3.95731e-07
3.96763e-07
3.97795e-07
3.98826e-07
3.99857e-07
4.00886e-07
4.01916e-07
4.02944e-07
4.03971e-07
4.04999e-07
4.06025e-07
4.0705e-07
4.08075e-07
4.09099e-07
4.10122e-07
4.11145e-07
4.12167e-07
4.13188e-07
4.14208e-07
4.15227e-07
4.16246e-07
4.17264e-07
4.18281e-07
4.19298e-07
4.20314e-07
4.21328e-07
4.22342e-07
4.23356e-07
4.24368e-07
4.25379e-07
4.2639e-07
4.274e-07
4.28409e-07
4.29418e-07
4.30425e-07
4.31432e-07
4.32438e-07
4.33442e-07
4.34446e-07
4.36222e-07
8.55075e-07
7.14945e-07
4.04089e-07
2.46639e-07
6.83032e-07
6.75867e-07
6.98825e-07
3.53e-08
3.93454e-07
3.94697e-07
3.95731e-07
3.96763e-07
3.97795e-07
3.98826e-07
3.99857e-07
4.00886e-07
4.01916e-07
4.02944e-07
4.03971e-07
4.04999e-07
4.06025e-07
4.0705e-07
4.08075e-07
4.09099e-07
4.10122e-07
4.11145e-07
4.12167e-07
4.13188e-07
4.14208e-07
4.15227e-07
4.16246e-07
4.17264e-07
4.18281e-07
4.19298e-07
4.20314e-07
4.21328e-07
4.22342e-07
4.23356e-07
4.24368e-07
4.25379e-07
4.2639e-07
4.274e-07
4.28409e-07
4.29418e-07
4.30425e-07
4.31432e-07
4.32438e-07
4.33442e-07
4.34446e-07
4.36222e-07
8.64929e-07
1.6433e-07
2.75941e-07
6.52982e-07
2.60562e-07
5.21356e-07
6.9695e-07
1.29503e-07
3.93454e-07
3.94697e-07
3.95731e-07
3.96763e-07
3.97795e-07
3.98826e-07
3.99857e-07
4.00886e-07
4.01916e-07
4.02944e-07
4.03971e-07
4.04999e-07
4.06025e-07
4.0705e-07
4.08075e-07
4.09099e-07
4.10122e-07
4.11145e-07
4.12167e-07
4.13188e-07
4.14208e-07
4.15227e-07
4.16246e-07
4.17264e-07
4.18281e-07
4.19298e-07
4.20314e-07
4.21328e-07
4.22342e-07
4.23356e-07
4.24368e-07
4.25379e-07
4.2639e-07
4.274e-07
4.28409e-07
4.29418e-07
4.30425e-07
4.31431e-07
4.32438e-07
4.33442e-07
4.34446e-07
4.36222e-07
8.88929e-07
6.17878e-07
8.45383e-07
8.39252e-07
8.97472e-07
6.91989e-07
1.05452e-07
3.92286e-07
3.93662e-07
3.94697e-07
3.9573e-07
3.96763e-07
3.97795e-07
3.98826e-07
3.99857e-07
4.00886e-07
4.01916e-07
4.02944e-07
4.03971e-07
4.04999e-07
4.06025e-07
4.0705e-07
4.08075e-07
4.09099e-07
4.10122e-07
4.11145e-07
4.12167e-07
4.13188e-07
4.14208e-07
4.15227e-07
4.16246e-07
4.17264e-07
4.18281e-07
4.19298e-07
4.20314e-07
4.21328e-07
4.22342e-07
4.23356e-07
4.24368e-07
4.25379e-07
4.2639e-07
4.274e-07
4.28409e-07
4.29418e-07
4.30425e-07
4.31432e-07
4.32438e-07
4.33442e-07
4.34446e-07
4.36222e-07
7.44202e-07
2.94177e-07
6.92159e-07
3.09285e-07
7.08703e-07
6.91165e-07
7.18822e-08
5.04676e-07
5.06385e-07
5.07527e-07
5.08665e-07
5.09803e-07
5.10939e-07
5.12072e-07
5.13204e-07
5.14335e-07
5.15464e-07
5.16591e-07
5.17717e-07
5.18841e-07
5.19964e-07
5.21085e-07
5.22203e-07
5.23321e-07
5.24438e-07
5.25551e-07
5.26665e-07
5.27776e-07
5.28885e-07
5.29993e-07
5.31099e-07
5.32203e-07
5.33306e-07
5.34408e-07
5.35507e-07
5.36605e-07
5.37702e-07
5.38795e-07
5.39889e-07
5.4098e-07
5.42069e-07
5.43157e-07
5.44244e-07
5.45328e-07
5.46411e-07
5.47492e-07
5.48571e-07
5.49649e-07
5.50726e-07
5.53041e-07
9.57862e-07
8.89097e-07
9.77576e-07
9.51188e-07
8.96534e-07
6.72504e-07
1.3715e-07
1.84067e-07
5.0604e-07
5.07528e-07
5.08666e-07
5.09803e-07
5.10939e-07
5.12072e-07
5.13204e-07
5.14335e-07
5.15464e-07
5.16591e-07
5.17717e-07
5.18841e-07
5.19964e-07
5.21085e-07
5.22203e-07
5.23321e-07
5.24438e-07
5.25551e-07
5.26665e-07
5.27776e-07
5.28885e-07
5.29993e-07
5.31099e-07
5.32203e-07
5.33306e-07
5.34408e-07
5.35507e-07
5.36605e-07
5.37702e-07
5.38795e-07
5.39889e-07
5.4098e-07
5.42069e-07
5.43157e-07
5.44244e-07
5.45328e-07
5.46411e-07
5.47492e-07
5.48571e-07
5.4965e-07
5.50726e-07
5.53041e-07
9.63514e-07
9.58621e-07
9.78915e-07
7.56009e-07
6.28667e-07
6.91415e-07
7.74451e-07
1.83831e-07
5.06038e-07
5.07527e-07
5.08665e-07
5.09803e-07
5.10939e-07
5.12072e-07
5.13204e-07
5.14335e-07
5.15463e-07
5.16591e-07
5.17717e-07
5.18841e-07
5.19964e-07
5.21085e-07
5.22203e-07
5.23321e-07
5.24438e-07
5.25551e-07
5.26665e-07
5.27776e-07
5.28885e-07
5.29993e-07
5.31099e-07
5.32203e-07
5.33306e-07
5.34408e-07
5.35507e-07
5.36605e-07
5.37702e-07
5.38795e-07
5.39889e-07
5.4098e-07
5.42069e-07
5.43157e-07
5.44244e-07
5.45328e-07
5.46411e-07
5.47492e-07
5.48571e-07
5.4965e-07
5.50726e-07
5.53041e-07
9.56852e-07
9.71007e-07
8.57546e-07
8.12153e-07
9.1762e-07
6.7401e-07
9.31128e-07
5.21364e-08
5.06038e-07
5.07527e-07
5.08665e-07
5.09803e-07
5.10938e-07
5.12072e-07
5.13204e-07
5.14335e-07
5.15464e-07
5.16591e-07
5.17717e-07
5.18841e-07
5.19964e-07
5.21085e-07
5.22203e-07
5.23321e-07
5.24438e-07
5.25551e-07
5.26665e-07
5.27776e-07
5.28885e-07
5.29993e-07
5.31099e-07
5.32203e-07
5.33306e-07
5.34408e-07
5.35507e-07
5.36605e-07
5.37702e-07
5.38795e-07
5.39889e-07
5.4098e-07
5.42069e-07
5.43157e-07
5.44244e-07
5.45328e-07
5.46411e-07
5.47492e-07
5.48571e-07
5.49649e-07
5.50726e-07
5.53041e-07
9.22639e-07
9.06741e-07
5.57332e-07
7.04307e-07
8.28538e-07
6.77698e-07
9.31965e-07
7.46917e-08
5.06035e-07
5.07526e-07
5.08665e-07
5.09802e-07
5.10938e-07
5.12072e-07
5.13204e-07
5.14335e-07
5.15464e-07
5.16591e-07
5.17717e-07
5.18841e-07
5.19964e-07
5.21085e-07
5.22203e-07
5.23321e-07
5.24438e-07
5.25551e-07
5.26665e-07
5.27776e-07
5.28885e-07
5.29993e-07
5.31099e-07
5.32203e-07
5.33306e-07
5.34408e-07
5.35507e-07
5.36605e-07
5.37702e-07
5.38795e-07
5.39889e-07
5.4098e-07
5.42069e-07
5.43157e-07
5.44244e-07
5.45328e-07
5.46411e-07
5.47492e-07
5.48571e-07
5.49649e-07
5.50726e-07
5.53041e-07
8.92631e-07
7.9587e-07
1.96939e-07
3.90433e-07
6.96554e-07
7.40431e-07
9.31927e-07
9.52335e-08
5.06036e-07
5.07526e-07
5.08665e-07
5.09802e-07
5.10938e-07
5.12072e-07
5.13204e-07
5.14335e-07
5.15464e-07
5.16591e-07
5.17717e-07
5.18841e-07
5.19964e-07
5.21085e-07
5.22203e-07
5.23321e-07
5.24438e-07
5.25551e-07
5.26665e-07
5.27776e-07
5.28885e-07
5.29993e-07
5.31099e-07
5.32203e-07
5.33306e-07
5.34408e-07
5.35507e-07
5.36605e-07
5.37702e-07
5.38795e-07
5.39889e-07
5.4098e-07
5.42069e-07
5.43157e-07
5.44244e-07
5.45328e-07
5.46411e-07
5.47493e-07
5.48571e-07
5.49649e-07
5.50726e-07
5.5304e-07
8.75122e-07
3.59589e-07
1.67305e-07
5.80863e-07
4.68038e-07
7.34709e-07
9.31355e-07
6.29467e-08
5.06038e-07
5.07527e-07
5.08665e-07
5.09803e-07
5.10939e-07
5.12072e-07
5.13204e-07
5.14335e-07
5.15464e-07
5.16591e-07
5.17717e-07
5.18841e-07
5.19964e-07
5.21085e-07
5.22203e-07
5.23321e-07
5.24438e-07
5.25551e-07
5.26665e-07
5.27776e-07
5.28885e-07
5.29993e-07
5.31099e-07
5.32203e-07
5.33306e-07
5.34408e-07
5.35507e-07
5.36605e-07
5.37702e-07
5.38795e-07
5.39889e-07
5.4098e-07
5.42069e-07
5.43157e-07
5.44244e-07
5.45328e-07
5.46411e-07
5.47493e-07
5.48571e-07
5.49649e-07
5.50726e-07
5.5304e-07
8.99152e-07
5.59003e-07
4.61747e-07
6.57524e-07
9.26549e-07
7.14099e-07
7.77223e-07
5.19924e-08
5.0604e-07
5.07528e-07
5.08666e-07
5.09803e-07
5.10939e-07
5.12072e-07
5.13204e-07
5.14335e-07
5.15463e-07
5.16591e-07
5.17717e-07
5.18841e-07
5.19964e-07
5.21085e-07
5.22203e-07
5.23321e-07
5.24438e-07
5.25551e-07
5.26665e-07
5.27776e-07
5.28885e-07
5.29993e-07
5.31099e-07
5.32203e-07
5.33306e-07
5.34408e-07
5.35507e-07
5.36605e-07
5.37702e-07
5.38795e-07
5.39889e-07
5.4098e-07
5.42069e-07
5.43157e-07
5.44244e-07
5.45328e-07
5.46411e-07
5.47493e-07
5.48571e-07
5.4965e-07
5.50726e-07
5.53041e-07
8.07027e-07
5.12533e-07
5.49025e-07
5.4645e-07
3.27259e-07
3.91638e-07
7.70296e-07
1.83949e-07
5.0604e-07
5.07528e-07
5.08666e-07
5.09803e-07
5.10939e-07
5.12072e-07
5.13204e-07
5.14335e-07
5.15464e-07
5.16591e-07
5.17717e-07
5.18841e-07
5.19964e-07
5.21085e-07
5.22203e-07
5.23321e-07
5.24438e-07
5.25551e-07
5.26664e-07
5.27776e-07
5.28885e-07
5.29993e-07
5.31099e-07
5.32203e-07
5.33306e-07
5.34408e-07
5.35507e-07
5.36605e-07
5.37702e-07
5.38795e-07
5.39889e-07
5.4098e-07
5.42069e-07
5.43157e-07
5.44244e-07
5.45328e-07
5.46411e-07
5.47492e-07
5.48571e-07
5.4965e-07
5.50726e-07
5.53041e-07
8.93723e-07
8.74232e-07
8.8147e-07
7.67162e-07
9.22406e-07
7.44485e-07
1.51012e-07
5.04675e-07
5.06385e-07
5.07527e-07
5.08665e-07
5.09803e-07
5.10939e-07
5.12072e-07
5.13204e-07
5.14335e-07
5.15464e-07
5.16591e-07
5.17717e-07
5.18841e-07
5.19964e-07
5.21085e-07
5.22203e-07
5.23321e-07
5.24438e-07
5.25551e-07
5.26664e-07
5.27776e-07
5.28885e-07
5.29993e-07
5.31099e-07
5.32203e-07
5.33306e-07
5.34408e-07
5.35507e-07
5.36605e-07
5.37702e-07
5.38795e-07
5.39889e-07
5.4098e-07
5.42069e-07
5.43157e-07
5.44244e-07
5.45328e-07
5.46411e-07
5.47492e-07
5.48571e-07
5.49649e-07
5.50726e-07
5.53041e-07
9.49447e-07
7.63961e-07
5.60469e-07
3.90074e-07
4.14845e-07
7.02099e-07
7.14943e-08
3.92286e-07
3.93662e-07
3.94697e-07
3.9573e-07
3.96763e-07
3.97795e-07
3.98826e-07
3.99857e-07
4.00886e-07
4.01916e-07
4.02944e-07
4.03971e-07
4.04999e-07
4.06025e-07
4.0705e-07
4.08075e-07
4.09099e-07
4.10122e-07
4.11145e-07
4.12167e-07
4.13187e-07
4.14208e-07
4.15227e-07
4.16246e-07
4.17264e-07
4.18281e-07
4.19298e-07
4.20314e-07
4.21328e-07
4.22342e-07
4.23356e-07
4.24368e-07
4.25379e-07
4.2639e-07
4.274e-07
4.28409e-07
4.29418e-07
4.30425e-07
4.31431e-07
4.32438e-07
4.33442e-07
4.34446e-07
4.36222e-07
9.62807e-07
9.40357e-07
9.55135e-07
9.11033e-07
7.44733e-07
7.09248e-07
1.37237e-07
1.84071e-07
3.93454e-07
3.94697e-07
3.95731e-07
3.96763e-07
3.97795e-07
3.98826e-07
3.99856e-07
4.00886e-07
4.01916e-07
4.02944e-07
4.03971e-07
4.04999e-07
4.06025e-07
4.0705e-07
4.08075e-07
4.09099e-07
4.10122e-07
4.11145e-07
4.12167e-07
4.13187e-07
4.14208e-07
4.15227e-07
4.16246e-07
4.17264e-07
4.18281e-07
4.19298e-07
4.20314e-07
4.21328e-07
4.22342e-07
4.23356e-07
4.24368e-07
4.25379e-07
4.2639e-07
4.274e-07
4.28409e-07
4.29418e-07
4.30425e-07
4.31431e-07
4.32438e-07
4.33442e-07
4.34446e-07
4.36222e-07
9.6128e-07
9.64798e-07
9.64509e-07
8.84309e-07
5.30316e-07
6.99767e-07
7.74243e-07
1.83835e-07
3.93454e-07
3.94697e-07
3.9573e-07
3.96763e-07
3.97795e-07
3.98826e-07
3.99856e-07
4.00886e-07
4.01916e-07
4.02944e-07
4.03971e-07
4.04999e-07
4.06025e-07
4.0705e-07
4.08075e-07
4.09099e-07
4.10122e-07
4.11145e-07
4.12167e-07
4.13187e-07
4.14208e-07
4.15227e-07
4.16246e-07
4.17264e-07
4.18281e-07
4.19298e-07
4.20314e-07
4.21328e-07
4.22342e-07
4.23356e-07
4.24368e-07
4.25379e-07
4.2639e-07
4.274e-07
4.28409e-07
4.29418e-07
4.30425e-07
4.31431e-07
4.32438e-07
4.33442e-07
4.34446e-07
4.36222e-07
9.69121e-07
9.62636e-07
8.47651e-07
8.85056e-07
9.04386e-07
7.3558e-07
9.31606e-07
5.21213e-08
3.93453e-07
3.94697e-07
3.9573e-07
3.96763e-07
3.97795e-07
3.98826e-07
3.99856e-07
4.00886e-07
4.01916e-07
4.02944e-07
4.03971e-07
4.04999e-07
4.06025e-07
4.0705e-07
4.08075e-07
4.09099e-07
4.10122e-07
4.11145e-07
4.12167e-07
4.13187e-07
4.14208e-07
4.15227e-07
4.16246e-07
4.17264e-07
4.18281e-07
4.19298e-07
4.20314e-07
4.21328e-07
4.22342e-07
4.23356e-07
4.24368e-07
4.25379e-07
4.2639e-07
4.274e-07
4.28409e-07
4.29418e-07
4.30425e-07
4.31431e-07
4.32438e-07
4.33442e-07
4.34446e-07
4.36222e-07
9.30423e-07
9.0246e-07
3.56405e-07
4.15165e-07
5.99298e-07
6.78028e-07
9.31919e-07
7.4485e-08
3.93452e-07
3.94696e-07
3.9573e-07
3.96763e-07
3.97795e-07
3.98826e-07
3.99856e-07
4.00886e-07
4.01916e-07
4.02944e-07
4.03971e-07
4.04999e-07
4.06025e-07
4.0705e-07
4.08075e-07
4.09099e-07
4.10122e-07
4.11145e-07
4.12167e-07
4.13187e-07
4.14208e-07
4.15227e-07
4.16246e-07
4.17264e-07
4.18281e-07
4.19298e-07
4.20314e-07
4.21328e-07
4.22342e-07
4.23356e-07
4.24368e-07
4.25379e-07
4.2639e-07
4.274e-07
4.28409e-07
4.29418e-07
4.30425e-07
4.31431e-07
4.32438e-07
4.33442e-07
4.34446e-07
4.36222e-07
9.21362e-07
4.98218e-07
4.36014e-07
4.33434e-07
5.02977e-07
6.19192e-07
9.32043e-07
9.51547e-08
3.93453e-07
3.94696e-07
3.9573e-07
3.96763e-07
3.97795e-07
3.98826e-07
3.99856e-07
4.00886e-07
4.01916e-07
4.02944e-07
4.03971e-07
4.04999e-07
4.06025e-07
4.0705e-07
4.08075e-07
4.09099e-07
4.10122e-07
4.11145e-07
4.12167e-07
4.13187e-07
4.14208e-07
4.15227e-07
4.16246e-07
4.17264e-07
4.18281e-07
4.19298e-07
4.20314e-07
4.21328e-07
4.22342e-07
4.23356e-07
4.24368e-07
4.25379e-07
4.2639e-07
4.274e-07
4.28409e-07
4.29418e-07
4.30425e-07
4.31431e-07
4.32438e-07
4.33442e-07
4.34446e-07
4.36222e-07
8.20587e-07
3.83232e-07
1.45839e-07
3.89161e-07
2.68943e-07
7.27989e-07
9.31277e-07
6.28457e-08
3.93454e-07
3.94697e-07
3.9573e-07
3.96763e-07
3.97795e-07
3.98826e-07
3.99856e-07
4.00886e-07
4.01916e-07
4.02944e-07
4.03971e-07
4.04999e-07
4.06025e-07
4.0705e-07
4.08075e-07
4.09099e-07
4.10122e-07
4.11145e-07
4.12167e-07
4.13187e-07
4.14208e-07
4.15227e-07
4.16246e-07
4.17264e-07
4.18281e-07
4.19298e-07
4.20314e-07
4.21328e-07
4.22342e-07
4.23356e-07
4.24368e-07
4.25379e-07
4.2639e-07
4.274e-07
4.28409e-07
4.29418e-07
4.30425e-07
4.31431e-07
4.32438e-07
4.33442e-07
4.34446e-07
4.36222e-07
6.78619e-07
5.56194e-07
8.09982e-07
8.5634e-07
8.91175e-07
7.59034e-07
7.77316e-07
5.19927e-08
3.93454e-07
3.94697e-07
3.95731e-07
3.96763e-07
3.97795e-07
3.98826e-07
3.99857e-07
4.00886e-07
4.01916e-07
4.02944e-07
4.03971e-07
4.04999e-07
4.06025e-07
4.0705e-07
4.08075e-07
4.09099e-07
4.10122e-07
4.11145e-07
4.12167e-07
4.13188e-07
4.14208e-07
4.15227e-07
4.16246e-07
4.17264e-07
4.18281e-07
4.19298e-07
4.20314e-07
4.21328e-07
4.22342e-07
4.23356e-07
4.24368e-07
4.25379e-07
4.2639e-07
4.274e-07
4.28409e-07
4.29418e-07
4.30425e-07
4.31431e-07
4.32438e-07
4.33442e-07
4.34446e-07
4.36222e-07
8.55019e-07
5.98998e-07
7.94609e-07
8.94105e-07
4.33127e-07
4.66137e-07
7.70945e-07
1.83953e-07
3.93454e-07
3.94697e-07
3.95731e-07
3.96763e-07
3.97795e-07
3.98826e-07
3.99857e-07
4.00886e-07
4.01916e-07
4.02944e-07
4.03971e-07
4.04999e-07
4.06025e-07
4.0705e-07
4.08075e-07
4.09099e-07
4.10122e-07
4.11145e-07
4.12167e-07
4.13187e-07
4.14208e-07
4.15227e-07
4.16246e-07
4.17264e-07
4.18281e-07
4.19298e-07
4.20314e-07
4.21328e-07
4.22342e-07
4.23356e-07
4.24368e-07
4.25379e-07
4.2639e-07
4.274e-07
4.28409e-07
4.29418e-07
4.30425e-07
4.31431e-07
4.32438e-07
4.33442e-07
4.34446e-07
4.36222e-07
8.94164e-07
7.92492e-07
9.31239e-07
8.35273e-07
6.53856e-07
7.58378e-07
1.51346e-07
3.92286e-07
3.93662e-07
3.94697e-07
3.9573e-07
3.96763e-07
3.97795e-07
3.98826e-07
3.99856e-07
4.00886e-07
4.01916e-07
4.02944e-07
4.03971e-07
4.04999e-07
4.06025e-07
4.0705e-07
4.08075e-07
4.09099e-07
4.10122e-07
4.11145e-07
4.12167e-07
4.13187e-07
4.14208e-07
4.15227e-07
4.16246e-07
4.17264e-07
4.18281e-07
4.19298e-07
4.20314e-07
4.21328e-07
4.22342e-07
4.23356e-07
4.24368e-07
4.25379e-07
4.2639e-07
4.274e-07
4.28409e-07
4.29418e-07
4.30425e-07
4.31431e-07
4.32438e-07
4.33442e-07
4.34446e-07
4.36222e-07
4.50498e-07
6.78856e-07
6.92859e-07
7.01335e-07
5.15128e-07
7.31075e-07
7.64486e-07
6.95007e-07
6.71521e-07
7.00496e-07
7.09156e-07
7.69162e-07
6.96942e-07
7.74889e-07
7.00615e-07
6.20887e-07
7.00444e-07
6.55961e-07
7.75452e-07
6.66833e-07
7.763e-07
6.99935e-07
6.76151e-07
7.0014e-07
6.84672e-07
7.74463e-07
6.99326e-07
7.66748e-07
6.97434e-07
6.03369e-07
7.00403e-07
6.85246e-07
7.73079e-07
6.28425e-07
7.75872e-07
7.00038e-07
6.77301e-07
6.99601e-07
7.21027e-07
7.75657e-07
6.95181e-07
7.74986e-07
6.98421e-07
6.77573e-07
7.0029e-07
7.38138e-07
7.66077e-07
7.18779e-07
7.73279e-07
6.99804e-07
6.47711e-07
7.00014e-07
7.32721e-07
7.7523e-07
5.74229e-07
7.74374e-07
6.99726e-07
6.85463e-07
6.97955e-07
3.95434e-07
7.72688e-07
7.38551e-07
7.71709e-07
6.96105e-07
6.6717e-07
6.89951e-07
7.57346e-07
7.70228e-07
6.29561e-07
7.5113e-07
5.10889e-07
7.35229e-07
7.63937e-07
7.07611e-07
5.08412e-07
7.14259e-07
7.657e-07
7.6935e-07
6.63313e-07
7.74686e-07
6.6122e-07
7.68746e-07
6.18593e-07
7.7517e-07
7.75092e-07
6.84909e-07
7.76064e-07
6.89754e-07
7.75073e-07
6.47009e-07
7.76325e-07
7.75053e-07
6.873e-07
7.66687e-07
7.22027e-07
7.7544e-07
7.1209e-07
7.68045e-07
7.71786e-07
6.20656e-07
7.74547e-07
6.74026e-07
7.73195e-07
6.56121e-07
7.76616e-07
7.74132e-07
6.95298e-07
7.73936e-07
6.8529e-07
7.77045e-07
7.17239e-07
7.75255e-07
7.68027e-07
7.42943e-07
7.76669e-07
7.06036e-07
7.68533e-07
7.18642e-07
7.75247e-07
7.75436e-07
5.65872e-07
7.74006e-07
7.50556e-07
7.76679e-07
5.96403e-07
7.74622e-07
7.72668e-07
7.46616e-07
7.71369e-07
4.36789e-07
7.73737e-07
7.53615e-07
7.71734e-07
7.68649e-07
6.28943e-07
7.49614e-07
7.55094e-07
7.68818e-07
6.14858e-07
7.49153e-07
5.13978e-07
7.02327e-07
7.65938e-07
6.79783e-07
4.57634e-07
6.88831e-07
6.92681e-07
7.68635e-07
6.50648e-07
7.75826e-07
6.87269e-07
6.95088e-07
6.59331e-07
7.00666e-07
7.75466e-07
6.74855e-07
7.76844e-07
6.57654e-07
7.00796e-07
6.79742e-07
7.00632e-07
7.75559e-07
7.0733e-07
7.71362e-07
5.80146e-07
6.9829e-07
6.31527e-07
6.98158e-07
7.72695e-07
6.12844e-07
7.75624e-07
6.78344e-07
6.98874e-07
6.49621e-07
6.99943e-07
7.76391e-07
7.36807e-07
7.74322e-07
5.10673e-07
7.0041e-07
6.86589e-07
6.99902e-07
7.65359e-07
7.34532e-07
7.7244e-07
6.88213e-07
6.99241e-07
6.75406e-07
6.98438e-07
7.75899e-07
6.31459e-07
7.75264e-07
6.81116e-07
6.9986e-07
6.26063e-07
6.99877e-07
7.7391e-07
7.36039e-07
7.71866e-07
6.60944e-07
6.99753e-07
6.89834e-07
6.9799e-07
7.69294e-07
6.12816e-07
7.54709e-07
6.92679e-07
6.96061e-07
6.35454e-07
6.89951e-07
3.92398e-07
8.71501e-07
8.49855e-07
7.38108e-07
7.30326e-07
8.87103e-07
8.98142e-07
7.61696e-07
6.97125e-07
6.70128e-07
7.2275e-07
7.39935e-07
6.93216e-07
7.7149e-07
1.29567e-07
7.08578e-08
1.29509e-07
7.14368e-08
1.83833e-07
1.03425e-07
1.83718e-07
8.86519e-07
8.7989e-07
8.51476e-07
8.81147e-07
9.03492e-07
9.18046e-07
9.14406e-07
7.35877e-07
6.93861e-07
6.41755e-07
7.67632e-07
7.61143e-07
6.64066e-07
6.84902e-07
3.52934e-08
6.95471e-07
3.51624e-08
1.37207e-07
5.20167e-08
7.6947e-07
5.19809e-08
8.91047e-07
8.96312e-07
7.26641e-07
7.31161e-07
8.96908e-07
8.82337e-07
8.64161e-07
7.03622e-07
6.99347e-07
2.82434e-07
7.12297e-07
7.69299e-07
4.38205e-07
6.46148e-07
3.52818e-08
6.98506e-07
4.21966e-08
7.74536e-07
5.19918e-08
7.76015e-07
6.2423e-08
6.18085e-07
7.52784e-07
7.99468e-07
8.96473e-07
7.19294e-07
7.47988e-07
7.5958e-07
7.65018e-07
6.95975e-07
4.34044e-07
7.07734e-07
7.66553e-07
5.15749e-07
6.95791e-07
6.33556e-08
9.03131e-07
2.79255e-07
9.31337e-07
9.2181e-08
9.31833e-07
3.61645e-07
8.61749e-07
4.34288e-07
1.71371e-07
8.19782e-07
8.26164e-07
3.63943e-07
2.6324e-07
7.0498e-07
6.95618e-07
4.57592e-07
7.1866e-07
7.6523e-07
5.08763e-07
6.07191e-07
5.28777e-07
9.02966e-07
6.93644e-07
9.32554e-07
5.75572e-07
9.32261e-07
7.67915e-07
2.99972e-07
8.95349e-07
7.79915e-07
5.86613e-07
3.16916e-07
8.89673e-07
8.78963e-07
7.67375e-07
6.97745e-07
6.15965e-07
6.31002e-07
7.72317e-07
7.17949e-07
6.9644e-07
6.93425e-07
9.0231e-07
4.99411e-07
9.32397e-07
7.67867e-07
9.31584e-07
5.50632e-07
8.09828e-07
8.35443e-07
8.66326e-07
6.30151e-07
7.03493e-07
6.95446e-07
8.71033e-07
7.62215e-07
6.9606e-07
6.75264e-07
7.45211e-07
7.68449e-07
7.20686e-07
6.91141e-07
2.47224e-07
9.02893e-07
6.2432e-08
9.31115e-07
3.25545e-07
9.31708e-07
9.09963e-08
3.85105e-07
1.88061e-07
3.38598e-07
8.39736e-07
8.26184e-07
5.02303e-07
3.98644e-07
7.60851e-07
6.97766e-07
6.72434e-07
7.418e-07
7.67198e-07
6.4846e-07
6.94694e-07
4.37847e-08
6.98738e-07
3.50651e-08
7.76953e-07
6.47513e-08
7.74785e-07
5.20008e-08
1.92602e-07
8.43114e-07
8.58201e-07
4.37072e-07
2.49597e-07
9.00517e-07
9.06991e-07
7.2603e-07
6.95965e-07
5.48879e-07
5.60888e-07
7.65356e-07
6.80526e-07
6.53515e-07
3.52114e-08
1.73683e-07
3.52267e-08
7.7062e-07
5.19852e-08
2.39967e-07
5.20165e-08
8.80215e-07
6.48184e-07
3.84674e-07
8.89192e-07
8.8984e-07
7.66722e-07
6.77816e-07
7.74082e-07
6.96013e-07
6.30596e-07
7.4544e-07
7.69942e-07
6.64741e-07
7.00072e-07
1.29514e-07
5.18968e-08
1.29566e-07
1.51156e-07
1.83729e-07
7.61853e-08
1.8383e-07
4.93297e-07
8.80933e-07
8.72351e-07
4.62783e-07
7.417e-07
7.61916e-07
8.56681e-07
7.32539e-07
7.61834e-07
7.34345e-07
6.99139e-07
7.37481e-07
7.36657e-07
7.60193e-07
1.83828e-07
1.03472e-07
1.83713e-07
7.22059e-08
1.83828e-07
1.0345e-07
1.83713e-07
8.68884e-07
8.47541e-07
9.16869e-07
8.9125e-07
9.02198e-07
7.56981e-07
8.32416e-07
6.57408e-07
7.42671e-07
5.61171e-07
6.78178e-07
6.53846e-07
7.33892e-07
5.75694e-07
5.20162e-08
7.69276e-07
5.19806e-08
1.37162e-07
5.20163e-08
7.69537e-07
5.19806e-08
6.52806e-07
7.66977e-07
8.37001e-07
5.08214e-07
6.67781e-07
2.71451e-07
7.51535e-07
7.3031e-07
7.5388e-07
4.99973e-07
6.63909e-07
7.10733e-07
7.53773e-07
4.69685e-07
5.19913e-08
7.76237e-07
6.25066e-08
7.74343e-07
5.19913e-08
7.76001e-07
6.25006e-08
8.45114e-07
8.84588e-07
8.58886e-07
8.39317e-07
8.7412e-07
8.37458e-07
7.75337e-07
7.33362e-07
7.61828e-07
5.1132e-07
6.89336e-07
7.37834e-07
7.62136e-07
5.80414e-07
9.21787e-08
9.31702e-07
3.60449e-07
9.31506e-07
9.22132e-08
9.30598e-07
3.60099e-07
8.92623e-07
5.68877e-07
2.8221e-07
7.62439e-07
3.58565e-07
4.5704e-07
2.62789e-07
7.20798e-07
7.45564e-07
4.92203e-07
7.07776e-07
7.19316e-07
7.45311e-07
4.42386e-07
5.69408e-07
9.32125e-07
7.6795e-07
9.32214e-07
5.69743e-07
9.32026e-07
7.67661e-07
2.83028e-07
7.84938e-07
8.19929e-07
5.11469e-07
3.16154e-07
3.9698e-07
8.62006e-07
7.64353e-07
7.61147e-07
7.41838e-07
7.36639e-07
7.65111e-07
7.47515e-07
7.11507e-07
7.67824e-07
9.30996e-07
5.44546e-07
9.31531e-07
7.67835e-07
9.31093e-07
5.43465e-07
6.59277e-07
4.15747e-07
3.66948e-07
3.16295e-07
3.31127e-07
2.96926e-07
4.53643e-07
7.70324e-07
7.52924e-07
6.3121e-07
6.99077e-07
7.68162e-07
7.49999e-07
6.10657e-07
3.26688e-07
9.31664e-07
9.10242e-08
9.31057e-07
3.27781e-07
9.31771e-07
9.10053e-08
7.95077e-07
3.53909e-07
3.68734e-07
8.79542e-07
8.97057e-07
3.13587e-07
2.87013e-07
7.50159e-07
7.68853e-07
5.62467e-07
7.14963e-07
7.57929e-07
7.70291e-07
5.31777e-07
6.47912e-08
7.74724e-07
5.20006e-08
7.77273e-07
6.47952e-08
7.74652e-07
5.20005e-08
3.19294e-07
7.90143e-07
8.06886e-07
5.07588e-07
1.92191e-07
8.64959e-07
5.70868e-07
6.48315e-07
7.1032e-07
5.66996e-07
4.19337e-07
6.23676e-07
6.92201e-07
3.82517e-07
5.19849e-08
2.40235e-07
5.2016e-08
7.70529e-07
5.19849e-08
2.40304e-07
5.20161e-08
8.62843e-07
7.99377e-07
7.20709e-07
8.17532e-07
8.93547e-07
5.01257e-07
4.81224e-07
7.6213e-07
7.65773e-07
7.6887e-07
7.31477e-07
7.69025e-07
7.69157e-07
7.28384e-07
1.83725e-07
7.69029e-08
1.83825e-07
1.51191e-07
1.83724e-07
7.636e-08
1.83825e-07
6.94643e-07
5.1425e-07
5.93854e-07
3.65696e-07
5.60868e-07
5.40728e-07
8.09031e-07
7.37402e-07
7.66529e-07
6.96488e-07
7.14874e-07
7.30077e-07
6.88924e-07
7.67426e-07
1.83833e-07
1.03489e-07
1.83717e-07
4.7969e-08
1.29567e-07
7.05638e-08
1.29509e-07
8.04646e-07
8.0162e-07
7.33361e-07
6.59292e-07
4.74509e-07
5.79427e-07
4.68e-07
6.8482e-07
7.66657e-07
4.01928e-07
6.68411e-07
6.66481e-07
7.68286e-07
3.37966e-07
5.20167e-08
7.69931e-07
5.19809e-08
9.5978e-08
3.52722e-08
6.95583e-07
3.51624e-08
4.22749e-07
4.07328e-07
4.93563e-07
3.146e-07
6.60116e-07
5.32928e-07
3.6063e-07
7.37965e-07
7.61838e-07
6.13591e-07
7.03389e-07
7.29249e-07
7.64043e-07
6.27389e-07
5.19916e-08
7.76007e-07
6.24149e-08
6.98383e-07
3.51841e-08
6.98553e-07
4.21892e-08
8.68859e-07
9.2054e-07
8.0324e-07
8.6197e-07
7.99129e-07
8.66227e-07
7.49741e-07
7.41437e-07
7.65211e-07
6.75231e-07
6.70845e-07
7.38722e-07
7.67397e-07
6.72416e-07
9.22108e-08
9.3154e-07
3.61016e-07
9.02275e-07
6.33505e-08
9.02196e-07
2.79726e-07
3.55095e-07
3.90898e-07
2.56268e-07
8.30044e-07
8.7719e-07
6.77541e-07
1.63833e-07
7.71541e-07
7.55749e-07
5.28628e-07
7.28516e-07
7.68796e-07
7.61531e-07
6.16802e-07
5.77087e-07
9.32163e-07
7.6768e-07
9.02899e-07
5.30575e-07
9.02968e-07
6.93581e-07
3.47149e-07
8.22001e-07
8.57906e-07
8.5175e-07
3.05009e-07
8.6653e-07
8.22526e-07
7.70697e-07
7.33689e-07
6.9078e-07
5.75964e-07
7.71807e-07
7.5672e-07
6.81112e-07
7.67744e-07
9.31592e-07
5.499e-07
9.02856e-07
6.93543e-07
9.02286e-07
5.00329e-07
2.77631e-07
3.48345e-07
4.78388e-07
6.86728e-07
7.47576e-07
7.73179e-07
7.3027e-07
7.61744e-07
7.64354e-07
6.31754e-07
7.47755e-07
7.63494e-07
7.64067e-07
6.22077e-07
3.28676e-07
9.31731e-07
9.09615e-08
9.02512e-07
2.46506e-07
9.02842e-07
6.23832e-08
8.90574e-07
2.90875e-07
3.73577e-07
8.93557e-07
8.48227e-07
7.83974e-07
5.2874e-07
7.64191e-07
7.66798e-07
5.99328e-07
7.43223e-07
7.64165e-07
7.68716e-07
6.01031e-07
6.47489e-08
7.74675e-07
5.20008e-08
6.9884e-07
4.37428e-08
6.97645e-07
3.50652e-08
1.73806e-07
8.03184e-07
5.36671e-07
7.22197e-07
9.51089e-08
8.93883e-07
5.01229e-07
7.11231e-07
7.40423e-07
4.18085e-07
5.09741e-07
6.81245e-07
7.53577e-07
4.01494e-07
5.19851e-08
2.40112e-07
5.20165e-08
6.97052e-07
3.51441e-08
1.73089e-07
3.52277e-08
6.57662e-07
3.90644e-07
5.42587e-07
6.48962e-07
6.55592e-07
5.26947e-07
4.11595e-07
7.69738e-07
7.7079e-07
6.84066e-07
7.44171e-07
7.62604e-07
7.69741e-07
6.94956e-07
1.83728e-07
7.62089e-08
1.8383e-07
1.06326e-07
1.29514e-07
5.19671e-08
1.29566e-07
7.72687e-07
6.99667e-07
5.3601e-07
5.34096e-07
6.05363e-07
6.97827e-07
7.74412e-07
7.62414e-07
6.74855e-07
6.92188e-07
7.65243e-07
6.88864e-07
7.64077e-07
6.89328e-07
7.70739e-07
6.57334e-07
6.96e-07
7.66418e-07
7.07118e-07
7.69769e-07
6.972e-07
7.52605e-07
7.19002e-07
7.66983e-07
7.57639e-07
7.50116e-07
7.45381e-07
7.69928e-07
7.73554e-07
5.21878e-07
7.71267e-07
5.70652e-07
5.83536e-07
7.73774e-07
7.73122e-07
7.57976e-07
7.51741e-07
6.37335e-07
7.60518e-07
6.44878e-07
7.58611e-07
7.44656e-07
7.66905e-07
7.65336e-07
6.63403e-07
7.67948e-07
6.81668e-07
7.68884e-07
7.62093e-07
7.7066e-07
6.97999e-07
6.97753e-07
7.68952e-07
7.71247e-07
7.72925e-07
6.98049e-07
7.59568e-07
6.94098e-07
6.93479e-07
7.00839e-07
7.03089e-07
7.68987e-07
6.93225e-07
7.74974e-07
7.00548e-07
6.99356e-07
7.75658e-07
7.76672e-07
7.74382e-07
7.00281e-07
7.11444e-07
7.67646e-07
7.47574e-07
6.29195e-07
7.51735e-07
6.49373e-07
6.81733e-07
7.67822e-07
7.68726e-07
7.6995e-07
7.72243e-07
7.70281e-07
7.72251e-07
7.65028e-07
7.55982e-07
6.59108e-07
6.17145e-07
7.66619e-07
6.47307e-07
7.70052e-07
7.50479e-07
7.70612e-07
7.75037e-07
7.75996e-07
7.74703e-07
7.76531e-07
7.74659e-07
7.70773e-07
7.71169e-07
7.00542e-07
7.00334e-07
7.76788e-07
7.73201e-07
7.76195e-07
6.98102e-07
6.12814e-07
3.51461e-07
6.98865e-07