/*--------------------------------*- C++ -*----------------------------------*\
| =========                 |                                                 |
| \\      /  F ield         | OpenFOAM: The Open Source CFD Toolbox           |
|  \\    /   O peration     | Version:  5.0                                   |
|   \\  /    A nd           | Web:      www.OpenFOAM.org                      |
|    \\/     M anipulation  |                                                 |
\*---------------------------------------------------------------------------*/
FoamFile
{
    version     2.0;
    format      ascii;
    class       volVectorField;
    location    "4";
    object      U;
}
// * * * * * * * * * * * * * * * * * * * * * * * * * * * * * * * * * * * * * //

dimensions      [0 1 -1 0 0 0 0];

internalField   nonuniform List<vector> 
8941
(
(0.0215174 0.00149407 -0.00526595)
(0.00230726 -0.00697823 -7.69235e-05)
(-0.00269719 5.15565e-05 0.000550166)
(-0.00059208 -0.00477111 -0.000326107)
(-0.0119178 0.00988741 -0.000494071)
(0.00327675 0.00296743 0.000245595)
(0.000542033 -1.40661e-05 4.84496e-05)
(0.000879644 -3.17342e-05 -1.80675e-06)
(0.000829025 2.89391e-06 -2.63604e-07)
(0.000820337 -6.8024e-06 3.85055e-08)
(0.000815356 -3.9132e-06 9.25538e-08)
(0.000811465 -3.05266e-06 4.74828e-08)
(0.000809653 -1.90756e-06 -1.40469e-10)
(0.0008075 -7.99915e-07 7.35025e-08)
(0.000805176 -5.845e-07 5.42848e-08)
(0.000803587 -3.3988e-07 2.81205e-07)
(0.000802033 -3.46567e-07 5.13725e-08)
(0.000800352 -1.96764e-07 -2.02748e-08)
(0.000798788 -1.45594e-07 6.82204e-08)
(0.00079734 -1.53807e-07 1.02734e-07)
(0.000795829 -8.30492e-08 6.62756e-08)
(0.000794217 6.71609e-08 7.51398e-08)
(0.000792683 6.80497e-08 1.60981e-08)
(0.000791164 7.0556e-08 4.50813e-08)
(0.000789798 2.04914e-07 5.86556e-08)
(0.000788297 2.79544e-07 6.51797e-08)
(0.000786733 8.46571e-08 5.69059e-08)
(0.000785426 8.46208e-08 4.97442e-08)
(0.000783802 2.02219e-07 1.50971e-07)
(0.000782317 -1.7497e-07 4.50971e-08)
(0.000780776 -4.73797e-07 7.64522e-08)
(0.00077907 -5.41562e-07 -3.19022e-08)
(0.000777653 -4.46396e-07 7.85198e-08)
(0.000776385 -2.20331e-07 6.37471e-08)
(0.000775006 1.48978e-08 3.86739e-08)
(0.000773389 1.45392e-07 1.12306e-07)
(0.000771727 6.04709e-08 3.51408e-08)
(0.000770004 1.65334e-07 2.24269e-08)
(0.000769095 4.81003e-07 7.76212e-08)
(0.000768006 1.03904e-07 5.17563e-08)
(0.000766233 -5.46161e-08 2.59244e-08)
(0.000764766 -7.36938e-08 7.43245e-08)
(0.00076379 -3.51729e-07 5.34407e-08)
(0.000761974 -4.90127e-07 -6.33347e-09)
(0.000760009 -2.38762e-07 3.24184e-08)
(0.000758745 -3.22454e-08 1.9186e-08)
(0.000757646 4.06713e-08 4.75129e-08)
(0.00075656 -1.10255e-07 6.03692e-08)
(0.000754823 -3.78319e-07 4.3697e-08)
(0.000753233 -3.25711e-07 9.92927e-09)
(0.0140807 0.0116472 2.35056e-05)
(-0.00662706 0.00122556 -0.000738233)
(0.00724671 -0.000945673 0.000166982)
(0.00693588 0.00308478 -0.000117026)
(-0.00161652 0.00115925 0.000622159)
(0.00308872 -0.0110898 0.000106803)
(0.000826288 8.07816e-05 -6.57195e-06)
(0.000457154 -1.21065e-05 -1.19389e-06)
(0.000869161 3.52968e-06 -1.08806e-06)
(0.000806202 -4.74937e-06 -4.05163e-07)
(0.000816573 -2.57014e-06 1.70188e-07)
(0.000811923 -1.93491e-06 4.07864e-08)
(0.000810108 -1.23836e-06 5.37838e-08)
(0.000807713 -1.05316e-06 4.33793e-08)
(0.000805764 -6.54169e-07 4.68968e-08)
(0.000803813 -4.16098e-07 3.70957e-08)
(0.000801979 -1.16287e-07 -5.96591e-08)
(0.000800577 9.77315e-08 7.32766e-08)
(0.00079898 2.42119e-07 4.30093e-08)
(0.000797339 6.18852e-08 2.21849e-08)
(0.000795813 3.00972e-08 8.85655e-08)
(0.000794274 3.35455e-08 4.94568e-08)
(0.000792684 1.85118e-07 4.7898e-08)
(0.000791332 2.40236e-07 1.80205e-08)
(0.000789873 2.75048e-07 5.74379e-08)
(0.000788018 5.95675e-08 1.098e-07)
(0.000786616 1.08967e-07 6.36139e-08)
(0.000785439 -1.17779e-07 4.56531e-08)
(0.000783622 -4.53888e-07 6.69615e-08)
(0.000781763 -3.91677e-07 -4.28899e-08)
(0.000780482 -3.33791e-07 -1.28853e-07)
(0.000779182 -2.04628e-07 8.02706e-09)
(0.000777945 2.59903e-07 1.17899e-07)
(0.000776859 2.51376e-07 1.04823e-07)
(0.000775324 3.73222e-09 4.44308e-08)
(0.000773471 -1.01101e-07 3.02466e-08)
(0.000772008 7.86177e-08 4.32777e-08)
(0.00077088 3.05466e-07 7.53519e-09)
(0.000768923 5.84903e-07 5.77586e-08)
(0.000767086 2.82666e-07 1.06423e-07)
(0.000765898 5.30717e-08 6.00557e-08)
(0.00076447 -1.11203e-07 6.30072e-08)
(0.000762848 -3.54037e-07 -2.15361e-08)
(0.000761916 -6.01897e-07 6.64555e-08)
(0.00076088 -1.2542e-07 5.50031e-08)
(0.000759209 2.54867e-08 7.04704e-08)
(0.000757658 3.47291e-07 5.03031e-08)
(0.000756127 7.51641e-08 -2.89569e-08)
(0.000754743 -8.87354e-08 -7.24613e-08)
(0.000753736 -1.70885e-07 1.08127e-07)
(0.00301421 -0.00288613 0.000829327)
(0.002095 -0.00847388 -2.50399e-05)
(0.00413164 -0.000601047 6.24567e-05)
(0.0016329 -0.00363374 0.000627089)
(-0.000478728 0.000681311 -0.00137818)
(-0.00116952 0.00884728 -4.15608e-05)
(0.00134446 -0.000175029 0.00010614)
(0.000481041 -6.44298e-06 -1.72866e-06)
(0.000870153 -3.87885e-06 -2.42394e-06)
(0.000812593 -2.40122e-06 -3.92285e-07)
(0.000818893 -1.32342e-06 1.28398e-07)
(0.000813141 -8.5756e-07 9.78745e-08)
(0.000810764 -6.2841e-07 5.09267e-08)
(0.000808236 -5.10342e-07 4.82167e-08)
(0.000805977 -3.18477e-07 5.18282e-08)
(0.000804263 -3.47627e-07 5.64106e-08)
(0.000802677 -2.13358e-07 4.14802e-08)
(0.0008008 -2.40445e-07 4.97134e-08)
(0.000798743 -3.62883e-07 1.01703e-07)
(0.000797074 -1.81127e-07 4.34218e-08)
(0.000795793 -1.58431e-07 3.0857e-08)
(0.000794408 -9.46743e-08 4.68808e-08)
(0.000792939 -9.32366e-08 1.02813e-07)
(0.000791274 -2.37424e-08 2.45213e-08)
(0.00078957 -1.70874e-07 6.60574e-08)
(0.000788087 -6.41062e-08 3.41933e-08)
(0.000786511 7.25935e-08 5.32248e-08)
(0.000784725 1.94395e-09 5.5404e-08)
(0.000783464 -8.52932e-08 -1.21606e-09)
(0.000782472 3.47392e-07 -9.01902e-08)
(0.000781014 4.82669e-07 2.34637e-07)
(0.000779813 5.21795e-07 5.33741e-08)
(0.000778222 4.58206e-07 5.92373e-10)
(0.000776062 2.78277e-07 2.08137e-08)
(0.000774564 -1.98796e-08 2.4298e-08)
(0.000773482 -9.92701e-08 5.60838e-08)
(0.000772234 -1.9593e-08 6.0721e-08)
(0.000770634 -6.22511e-08 4.91817e-08)
(0.000769063 -2.03395e-07 2.59554e-08)
(0.000767338 4.25887e-08 3.22515e-08)
(0.000765739 3.71976e-08 6.50372e-08)
(0.000764258 -6.86589e-08 6.74412e-08)
(0.00076318 3.53636e-07 9.33301e-08)
(0.000762263 5.32848e-07 8.81616e-08)
(0.000760796 2.76732e-07 -6.0892e-08)
(0.000759337 2.21166e-07 1.21943e-07)
(0.000757708 2.91167e-07 9.26893e-08)
(0.000756015 4.29667e-07 7.51745e-08)
(0.00075452 2.41341e-07 4.07819e-08)
(0.000753554 1.41006e-07 1.0077e-07)
(0.00337301 -0.00132519 4.47944e-05)
(0.0029451 0.00225996 3.57506e-07)
(-8.51728e-05 -0.006334 0.00017667)
(0.00305627 -0.00902695 -0.000124535)
(0.0157509 0.00476195 -8.74451e-05)
(-0.00069789 0.00289638 -6.66675e-05)
(0.00306733 -0.000967151 -3.4629e-05)
(0.000349104 3.30117e-07 9.4755e-06)
(0.00087194 -1.91407e-06 -1.40149e-06)
(0.000809797 9.28172e-07 -3.67549e-07)
(0.000818541 1.0676e-06 1.71354e-07)
(0.000812816 1.04538e-06 3.18883e-08)
(0.000810558 5.15053e-07 5.87311e-08)
(0.00080811 4.17159e-07 5.06727e-08)
(0.000805974 4.23423e-07 4.7623e-08)
(0.000803949 3.49687e-07 4.84539e-08)
(0.000802117 -2.08641e-08 4.36824e-08)
(0.000800394 -2.01224e-07 3.54207e-08)
(0.000799057 -3.07484e-07 5.28487e-08)
(0.000797598 -2.27225e-07 3.06865e-08)
(0.000795923 -1.51511e-07 6.10075e-08)
(0.000794357 -1.72728e-07 4.93781e-08)
(0.000792773 -1.73859e-07 3.06854e-08)
(0.000791236 -2.01601e-07 6.90759e-08)
(0.000789823 -1.70837e-07 -6.1074e-09)
(0.000788324 -2.49695e-08 3.17604e-08)
(0.000786699 1.18915e-07 5.71459e-08)
(0.000785242 4.10744e-07 5.835e-08)
(0.000784052 7.66447e-07 3.69826e-08)
(0.00078247 6.59812e-07 4.66878e-08)
(0.000780695 4.1992e-07 6.20074e-08)
(0.000779146 5.4836e-07 7.55816e-09)
(0.000777636 3.92446e-08 4.11518e-08)
(0.000776259 8.24356e-09 4.70406e-08)
(0.000774851 1.3828e-07 2.54244e-08)
(0.000773472 1.82166e-07 1.92555e-07)
(0.000772054 -6.6194e-09 1.12779e-07)
(0.000770651 -1.40952e-07 4.78228e-08)
(0.000769055 -2.72577e-07 1.84775e-08)
(0.000767387 -3.61061e-07 3.70224e-08)
(0.000765759 -1.58537e-08 5.6593e-08)
(0.000764865 2.98787e-07 1.2389e-07)
(0.000763596 4.10815e-07 1.80191e-07)
(0.000761816 3.25091e-07 6.37875e-08)
(0.000760487 6.45843e-08 3.62193e-08)
(0.000759224 5.42807e-08 4.20518e-08)
(0.000757915 3.76598e-08 7.32519e-08)
(0.000756062 2.86906e-07 4.09757e-08)
(0.000754378 1.69186e-07 4.85611e-08)
(0.000753258 2.56198e-07 1.59106e-07)
(0.00572197 -0.00460021 -0.00011785)
(-0.000303696 -0.000776097 0.000575173)
(-0.00672824 -0.00641922 -0.000365038)
(-0.00963106 5.25659e-06 -0.000613839)
(0.000663427 0.00214692 0.000298919)
(0.0013627 3.17132e-05 -9.58317e-05)
(0.000561768 -0.000118784 -9.26539e-06)
(0.00046628 -8.26837e-05 2.97671e-05)
(0.000874527 6.373e-06 -1.9321e-06)
(0.000816496 7.23675e-06 -3.83438e-07)
(0.000819083 4.58208e-06 1.10565e-07)
(0.000812475 2.90918e-06 6.59892e-09)
(0.000809993 1.99848e-06 7.96234e-08)
(0.00080813 1.09728e-06 5.10866e-08)
(0.000805897 4.7027e-07 -1.28248e-08)
(0.00080371 2.55673e-07 1.80618e-08)
(0.000801991 2.24622e-07 4.93162e-08)
(0.000800445 1.02352e-07 5.36769e-08)
(0.000798713 2.31849e-07 7.58498e-08)
(0.000797272 1.12668e-07 5.05066e-08)
(0.000795864 -3.19394e-07 6.77633e-08)
(0.000794383 6.19496e-08 2.33128e-08)
(0.000792905 9.59262e-08 5.69683e-08)
(0.00079128 1.18833e-07 1.26854e-08)
(0.000789792 1.4725e-07 8.61309e-08)
(0.00078845 -7.22601e-08 4.69721e-08)
(0.000787054 1.38637e-07 6.78468e-08)
(0.00078553 2.46555e-07 3.8624e-08)
(0.000783768 3.83732e-07 2.36155e-07)
(0.000782031 2.66349e-07 9.6451e-09)
(0.000780867 1.68474e-07 5.41892e-08)
(0.000779332 -1.38762e-07 3.59618e-08)
(0.000777543 1.253e-07 1.7485e-08)
(0.000776184 1.18805e-07 4.78505e-08)
(0.00077478 1.88461e-07 4.54638e-08)
(0.0007733 6.99224e-08 4.79058e-08)
(0.00077183 1.91579e-08 4.21391e-08)
(0.000770303 -1.17188e-07 6.12339e-08)
(0.00076879 -1.602e-07 5.08467e-08)
(0.000767661 -1.64747e-07 9.35132e-08)
(0.000766564 8.60707e-08 4.99138e-08)
(0.000764789 4.06419e-07 1.79391e-07)
(0.000763209 1.45083e-07 4.79937e-08)
(0.000761827 7.66158e-08 8.59153e-08)
(0.000760456 -6.85774e-08 4.71383e-08)
(0.000759302 -2.03102e-07 4.80047e-08)
(0.000757998 -5.30391e-07 1.12385e-08)
(0.000756178 -8.7763e-07 -1.19314e-09)
(0.000754476 -3.31958e-07 5.52831e-08)
(0.000753026 3.2075e-08 5.04874e-08)
(0.00528714 0.00148672 -0.0004394)
(0.00207421 -0.0105529 0.000572391)
(0.00557508 -0.00253725 -0.00371237)
(-0.0155839 -0.0181728 0.000316571)
(0.00398713 0.00079158 -0.000140079)
(-0.00579559 -0.000160902 0.000197065)
(0.000924288 -0.000463104 -2.27291e-06)
(0.000483473 3.16952e-05 4.90841e-05)
(0.000851731 2.83939e-05 -1.94013e-06)
(0.000806833 1.47101e-05 -2.5188e-07)
(0.000813145 8.45486e-06 1.23582e-07)
(0.000809594 4.81025e-06 5.56555e-08)
(0.000808297 3.14251e-06 6.48824e-08)
(0.000806203 1.76453e-06 5.2625e-08)
(0.000804925 8.97542e-07 8.26004e-08)
(0.000803644 4.02272e-07 8.37933e-08)
(0.000801926 3.02036e-07 5.06143e-08)
(0.000800403 2.88575e-07 6.58152e-08)
(0.00079907 1.46823e-07 2.26392e-08)
(0.000796909 3.96294e-07 7.9609e-08)
(0.000795859 6.96963e-07 1.44193e-07)
(0.000794876 3.66053e-07 2.42811e-07)
(0.000792844 2.29813e-07 1.22376e-07)
(0.000791299 1.81152e-07 6.46786e-08)
(0.000789584 2.32746e-07 5.6525e-08)
(0.000788312 2.83973e-07 -9.92797e-09)
(0.000787097 2.2917e-08 3.86373e-08)
(0.000785546 -1.15357e-07 9.32617e-09)
(0.000784074 4.41463e-08 2.57373e-08)
(0.000782199 -3.17488e-07 -1.01886e-07)
(0.000780187 -2.83062e-07 1.1349e-08)
(0.000779091 -3.1691e-07 -4.40491e-08)
(0.000777957 -2.27117e-07 1.23068e-08)
(0.000776336 -9.06714e-08 -5.65692e-08)
(0.000774789 -7.32548e-08 -3.48441e-08)
(0.00077326 3.12523e-08 6.50301e-08)
(0.000771821 6.7312e-08 5.45321e-08)
(0.000770428 1.0492e-07 1.10475e-07)
(0.000768997 2.01188e-07 7.20533e-08)
(0.000767696 1.55704e-07 5.33635e-08)
(0.000766473 1.86369e-07 2.7424e-08)
(0.000764937 4.63064e-08 4.39094e-09)
(0.000763184 1.54098e-07 1.14698e-08)
(0.00076155 4.79503e-08 5.24869e-08)
(0.000760139 1.07891e-08 3.93539e-08)
(0.00075865 -1.67911e-07 4.51963e-08)
(0.000757076 -5.0254e-07 -7.13511e-08)
(0.000756315 -7.04994e-07 6.55313e-08)
(0.000755517 -4.81863e-07 8.85106e-08)
(0.000753633 -3.33238e-07 1.28986e-07)
(-0.00260605 0.000107623 -9.42041e-05)
(0.0106501 -0.00125309 -0.000939281)
(-0.0042379 0.00311713 -0.00353271)
(-0.0266247 -0.0103184 0.00295314)
(-0.00888426 0.00701869 -0.000619657)
(-0.000696427 0.00142239 -0.000814002)
(0.00172752 -0.000111965 6.19828e-05)
(0.000432321 0.000101608 4.46668e-05)
(0.000835142 1.97403e-05 -1.64897e-06)
(0.000792468 1.06129e-05 -3.1807e-07)
(0.000806668 6.18846e-06 1.53283e-07)
(0.000805811 3.74519e-06 3.92693e-08)
(0.000806173 2.08625e-06 5.21718e-08)
(0.000805316 1.32233e-06 4.43003e-08)
(0.000804191 8.26137e-07 4.55911e-08)
(0.000802964 5.92338e-07 5.47835e-08)
(0.000801848 3.99771e-07 5.11439e-08)
(0.00080025 3.82271e-07 4.9544e-08)
(0.000798846 3.22194e-07 4.23145e-08)
(0.000797957 1.49914e-07 6.35867e-08)
(0.000795822 6.42124e-07 -3.09153e-08)
(0.000793796 1.65333e-07 4.47787e-08)
(0.000792672 1.44804e-07 4.4476e-08)
(0.000791282 5.47157e-08 5.42298e-08)
(0.000789919 1.00485e-07 3.00422e-09)
(0.000788186 2.03315e-07 9.41524e-08)
(0.000786555 -7.94005e-08 5.17688e-08)
(0.000785557 -2.90594e-07 4.00373e-08)
(0.000783518 -8.94594e-07 -6.8537e-08)
(0.000781625 -8.69478e-07 9.22509e-08)
(0.000780871 -5.69247e-07 -5.95914e-08)
(0.000779406 -6.60785e-08 5.10268e-08)
(0.000777829 -1.91842e-09 5.25075e-08)
(0.000776379 -3.74452e-08 6.44195e-08)
(0.000774934 -5.54766e-08 7.24398e-08)
(0.000773476 6.64552e-08 1.6915e-07)
(0.000771922 8.57475e-08 5.18212e-08)
(0.00077047 1.8465e-07 4.26281e-08)
(0.000768853 1.67761e-07 3.84e-08)
(0.000767642 4.01749e-07 -2.04859e-08)
(0.000766426 9.55933e-08 4.26466e-08)
(0.000764749 -8.88862e-08 4.57434e-09)
(0.000763212 -2.04898e-07 6.26307e-08)
(0.000761648 -1.89078e-07 6.4493e-08)
(0.000760187 -2.42464e-08 9.37194e-09)
(0.000758663 3.72628e-08 4.79589e-08)
(0.000757331 2.61667e-08 -4.73704e-08)
(0.00075621 1.62163e-07 4.74029e-08)
(0.00075495 -2.17899e-07 3.48322e-08)
(0.000754043 -3.18576e-07 4.20838e-08)
(-0.0147246 0.00165209 0.001029)
(-0.0282759 -0.0224315 0.000858319)
(0.00235323 -0.0135582 0.000769806)
(-0.00384729 -0.0143672 0.00257944)
(0.012796 -0.00950638 0.00145688)
(-0.0179018 -0.000211951 -0.000987084)
(0.000705361 6.93699e-05 -1.50458e-05)
(0.000323614 2.2947e-05 5.85107e-06)
(0.000829601 2.22416e-06 -1.80121e-06)
(0.000789572 1.1499e-06 -3.67058e-07)
(0.000804508 7.03551e-07 1.35364e-07)
(0.000804436 4.77418e-07 3.35308e-08)
(0.00080525 2.40043e-07 5.29699e-08)
(0.000804617 1.27642e-07 4.92481e-08)
(0.000804005 1.25521e-07 9.36682e-08)
(0.000803106 1.25237e-07 5.18041e-08)
(0.00080166 7.75442e-08 1.3626e-07)
(0.000800303 5.39925e-08 6.1609e-08)
(0.000798777 1.47761e-07 5.4139e-08)
(0.000797306 8.36081e-09 3.19351e-08)
(0.000795877 -4.29208e-07 4.35937e-08)
(0.000794252 -1.32669e-07 6.46751e-08)
(0.000792705 -1.96116e-07 3.95358e-08)
(0.000791243 -1.17634e-07 4.75328e-08)
(0.000789769 -2.90197e-07 5.47131e-08)
(0.000788087 -3.51299e-07 -1.40966e-07)
(0.00078648 -1.1174e-07 3.96311e-08)
(0.00078453 -1.88433e-07 5.90447e-08)
(0.000783356 -4.44595e-07 1.42936e-07)
(0.000782611 1.65996e-07 7.10582e-08)
(0.000781196 3.16861e-07 8.52178e-08)
(0.000779802 9.58582e-08 3.53905e-08)
(0.000777994 3.72555e-08 4.86221e-08)
(0.00077627 1.74061e-07 4.40878e-08)
(0.000774919 1.04567e-07 4.01777e-08)
(0.000773436 -6.66882e-09 1.34795e-08)
(0.000771968 1.94333e-08 5.14753e-08)
(0.00077053 -2.89428e-08 2.6891e-08)
(0.000769267 9.8792e-08 4.19788e-08)
(0.000767604 2.49749e-07 1.18116e-07)
(0.000765859 3.46438e-08 1.5302e-08)
(0.000764562 6.91203e-08 4.33443e-08)
(0.00076306 -5.91438e-08 -3.28539e-08)
(0.000761777 -3.59028e-08 4.48476e-08)
(0.000760423 6.45898e-09 4.35359e-08)
(0.000758714 1.14819e-07 4.43521e-08)
(0.000757233 4.61479e-07 3.90304e-08)
(0.000756011 3.2131e-07 5.26514e-08)
(0.000754925 1.81033e-07 5.1417e-08)
(0.000754303 -4.06242e-08 5.68904e-08)
(0.00839089 0.00740765 -0.000761053)
(0.016708 0.00477175 0.00133456)
(0.0262499 0.0103417 -0.00120688)
(-0.030871 -0.0119768 -0.000131194)
(-0.00521019 -0.00915264 0.000471613)
(0.00344829 0.00699266 -0.00102559)
(0.00091648 -0.000784436 0.000122647)
(0.000432863 -8.33294e-06 5.31002e-07)
(0.000836918 -2.55321e-05 -1.26816e-06)
(0.000790183 -8.64934e-06 -2.49175e-07)
(0.000805794 -5.53387e-06 1.66781e-07)
(0.00080521 -2.74415e-06 3.07843e-08)
(0.000805722 -1.54876e-06 5.61692e-08)
(0.000805164 -1.10935e-06 5.30908e-08)
(0.000804182 -3.93429e-07 4.04262e-08)
(0.0008029 -1.60504e-07 1.08354e-07)
(0.000801756 -6.44672e-08 4.88278e-08)
(0.000800336 -4.74141e-08 6.87907e-08)
(0.000798787 -4.55654e-08 2.58111e-09)
(0.000797235 7.23511e-08 7.52431e-08)
(0.000795647 -8.12498e-08 5.05523e-08)
(0.000794089 -1.9977e-07 7.56054e-08)
(0.000792692 -2.15543e-07 4.14844e-08)
(0.000791167 -2.20362e-07 5.19595e-08)
(0.000789629 -2.81776e-07 4.04685e-08)
(0.000788412 -3.46492e-07 3.09305e-08)
(0.00078676 -2.16487e-07 2.13915e-08)
(0.000785143 -4.25254e-08 4.72838e-08)
(0.000783962 3.93936e-07 9.96387e-08)
(0.000782576 4.30708e-07 -3.95952e-09)
(0.000780782 3.91902e-07 -1.21219e-08)
(0.000779054 2.24608e-07 8.90089e-08)
(0.000777926 -1.35191e-07 -1.94212e-08)
(0.000776462 -1.39306e-07 6.63716e-08)
(0.000774708 -1.28002e-07 2.57084e-08)
(0.00077337 -1.82499e-07 8.27392e-08)
(0.000771895 -1.45783e-07 5.21483e-08)
(0.000770569 -1.70545e-07 4.46924e-08)
(0.0007692 -2.85169e-07 9.09838e-08)
(0.00076756 -3.83494e-07 3.55598e-08)
(0.0007662 -1.64245e-07 5.41462e-08)
(0.000764632 -1.7518e-07 -1.53193e-08)
(0.000763081 5.7908e-08 4.24336e-08)
(0.000761731 6.97413e-08 7.21914e-08)
(0.000760376 5.48543e-08 5.69002e-08)
(0.00075923 -2.30814e-08 4.96211e-08)
(0.000757586 1.72387e-07 3.17231e-08)
(0.000755856 3.96055e-07 4.20471e-08)
(0.000754497 6.86836e-07 -5.95652e-08)
(0.000753864 4.71207e-07 8.88386e-08)
(-0.00176128 -0.00723704 0.000364821)
(0.0260978 0.0115068 -0.00136229)
(0.0149697 0.0108937 0.000568096)
(0.0113913 -0.00694022 -0.000459914)
(0.00210554 0.0203945 9.71587e-05)
(0.00311922 0.00197072 9.55674e-05)
(0.000801929 -5.67066e-05 9.32383e-06)
(0.00086662 -1.61051e-05 -2.24953e-06)
(0.000821959 -3.17907e-05 -2.3907e-07)
(0.000814632 -1.20361e-05 -6.80623e-09)
(0.000811884 -7.65586e-06 8.447e-08)
(0.000809413 -4.39814e-06 3.05388e-07)
(0.000807289 -2.65924e-06 6.00699e-08)
(0.000806057 -1.25617e-06 6.62817e-08)
(0.000805189 -7.92315e-07 5.46182e-08)
(0.000803515 -4.61098e-07 6.5722e-08)
(0.0008018 -2.42429e-07 4.16646e-08)
(0.000800325 -2.39075e-07 7.17542e-08)
(0.000798926 -2.2922e-07 4.98571e-08)
(0.000797261 -2.39315e-07 5.80351e-08)
(0.000795537 -1.46342e-07 7.85006e-08)
(0.000794086 -9.42018e-08 1.23199e-07)
(0.000792681 -4.4956e-08 5.55521e-08)
(0.000791163 -1.02153e-07 4.2399e-08)
(0.000789615 -4.67587e-08 -6.099e-08)
(0.000788172 3.27284e-08 7.10062e-08)
(0.000786862 -1.3906e-07 7.1458e-08)
(0.000785293 1.08246e-08 4.66621e-08)
(0.000783946 8.78897e-08 4.41083e-08)
(0.000782606 -1.16643e-07 2.19563e-08)
(0.000780936 -1.19928e-07 1.33919e-07)
(0.000779142 -1.22681e-07 -1.59858e-08)
(0.000777539 -1.09286e-07 -5.38672e-08)
(0.000776281 -3.43009e-07 3.63069e-08)
(0.000774867 -1.73324e-07 3.14473e-07)
(0.000773416 -1.05649e-07 6.24893e-08)
(0.000771984 -1.58744e-07 5.56541e-08)
(0.000770357 -2.40491e-07 4.92029e-08)
(0.000769003 -6.12307e-07 5.2754e-08)
(0.000767758 -3.27059e-07 5.80514e-08)
(0.000766122 -2.58231e-07 5.23098e-08)
(0.000764841 -3.03011e-07 8.6219e-08)
(0.000763367 -1.51732e-07 5.76322e-08)
(0.000761772 2.64759e-07 3.47881e-08)
(0.000760306 4.35876e-08 -2.23411e-09)
(0.000758858 -2.66749e-08 4.61532e-08)
(0.000757753 -3.4389e-07 2.54289e-08)
(0.000756649 2.16133e-08 2.76738e-08)
(0.000755004 2.20379e-07 -4.26495e-08)
(0.000752859 2.88549e-07 6.40787e-08)
(-0.0202406 -0.0290482 -0.0178045)
(0.0247981 -0.00354992 -0.00590779)
(0.00280632 -0.00916881 0.000484757)
(-0.0152639 -0.0216589 -0.00857329)
(0.00573667 0.00899916 0.00335066)
(0.0116486 0.0117051 0.00110452)
(0.00100866 -3.35241e-05 7.2092e-05)
(0.00145475 -4.45865e-05 3.53971e-07)
(0.00137552 9.753e-06 3.29701e-07)
(0.00136425 -7.99e-06 3.52768e-07)
(0.00135774 -4.40686e-06 3.84674e-07)
(0.0013523 -3.79696e-06 2.7016e-07)
(0.00134988 -2.39743e-06 2.62325e-07)
(0.00134669 -9.08398e-07 3.76926e-07)
(0.00134312 -6.93751e-07 3.42452e-07)
(0.00134054 -3.88599e-07 5.96683e-07)
(0.00133798 -4.75069e-07 3.37794e-07)
(0.00133527 -2.51718e-07 2.28402e-07)
(0.00133268 -2.00088e-07 3.68372e-07)
(0.00133026 -2.29176e-07 3.52664e-07)
(0.00132779 -9.8211e-08 3.50117e-07)
(0.00132509 1.90365e-07 3.74344e-07)
(0.00132251 1.81607e-07 3.14016e-07)
(0.00132003 1.6784e-07 2.87678e-07)
(0.00131773 4.41206e-07 3.44871e-07)
(0.00131521 5.64577e-07 3.55104e-07)
(0.00131267 2.28992e-07 2.88187e-07)
(0.00131059 1.47543e-07 3.30849e-07)
(0.00130775 3.10126e-07 4.58767e-07)
(0.00130513 -3.62683e-07 3.23871e-07)
(0.00130265 -9.16953e-07 3.57523e-07)
(0.0012998 -9.42597e-07 1.58362e-07)
(0.00129751 -7.52729e-07 3.41325e-07)
(0.00129551 -3.64091e-07 3.01319e-07)
(0.0012932 4.41025e-08 3.27171e-07)
(0.00129047 2.78539e-07 3.72168e-07)
(0.00128767 1.21406e-07 3.1073e-07)
(0.00128482 2.98099e-07 2.49042e-07)
(0.00128323 8.36744e-07 2.92046e-07)
(0.00128144 2.79013e-07 3.16905e-07)
(0.00127857 -4.20739e-08 2.83593e-07)
(0.00127607 -9.13473e-08 3.49488e-07)
(0.00127448 -5.93263e-07 3.50965e-07)
(0.0012715 -7.46844e-07 1.86166e-07)
(0.00126829 -3.97414e-07 3.26318e-07)
(0.00126616 -1.27324e-07 2.57737e-07)
(0.00126421 8.67663e-09 2.68927e-07)
(0.00126241 -2.59757e-07 3.23392e-07)
(0.00125949 -6.16594e-07 3.44625e-07)
(0.00125677 -5.25017e-07 2.2349e-07)
(-0.00607748 -0.00492879 0.000439564)
(0.011246 0.0197422 -0.00252973)
(-0.00340848 -0.00708912 -0.000272699)
(-0.00690843 0.000903682 0.000325348)
(-0.0125437 -0.00103995 0.00121617)
(-0.00918552 -0.00240466 0.00136888)
(0.000509965 0.000195317 -6.53496e-05)
(0.00134803 -3.46868e-05 4.89021e-08)
(0.00144228 5.94987e-06 4.10618e-07)
(0.00134024 -7.51503e-06 3.35353e-07)
(0.00135914 -3.94984e-06 3.3967e-07)
(0.0013526 -2.96028e-06 3.38279e-07)
(0.00135033 -1.88704e-06 3.37551e-07)
(0.00134685 -1.61315e-06 3.36024e-07)
(0.0013439 -1.01413e-06 3.35878e-07)
(0.00134082 -6.78969e-07 2.59907e-07)
(0.00133791 -1.76225e-07 2.13893e-07)
(0.00133564 1.63987e-07 4.03685e-07)
(0.00133299 3.97054e-07 3.24014e-07)
(0.00133027 1.22102e-07 3.02301e-07)
(0.00132776 1.18905e-07 3.57725e-07)
(0.00132518 8.97686e-08 3.69066e-07)
(0.00132252 3.98859e-07 2.50402e-07)
(0.00132033 4.70041e-07 3.16066e-07)
(0.00131791 5.3144e-07 3.22576e-07)
(0.00131479 1.46455e-07 4.54702e-07)
(0.00131237 2.01521e-07 3.42358e-07)
(0.00131036 -2.25643e-07 3.27106e-07)
(0.00130739 -9.10675e-07 2.89947e-07)
(0.00130429 -7.29519e-07 1.37032e-07)
(0.00130224 -5.92684e-07 5.93548e-08)
(0.00130015 -3.70175e-07 2.69011e-07)
(0.00129803 5.08581e-07 4.61707e-07)
(0.00129622 5.07754e-07 4.24123e-07)
(0.00129368 6.13527e-08 3.10139e-07)
(0.00129059 -1.30343e-07 3.00698e-07)
(0.00128814 1.66534e-07 3.1257e-07)
(0.00128624 5.24932e-07 8.83516e-08)
(0.00128305 9.89276e-07 3.91813e-07)
(0.00127999 5.56746e-07 3.72518e-07)
(0.00127794 1.10292e-07 3.34619e-07)
(0.00127554 -1.85266e-07 3.64972e-07)
(0.00127292 -5.47465e-07 3.14708e-07)
(0.00127139 -9.98255e-07 4.02818e-07)
(0.00126956 -2.50326e-07 3.47853e-07)
(0.00126684 -4.91923e-08 3.81068e-07)
(0.0012643 5.22076e-07 3.13003e-07)
(0.00126175 8.40335e-08 2.21116e-07)
(0.00125941 -2.1778e-07 7.53497e-08)
(0.0012577 -3.08229e-07 3.99481e-07)
(0.00987878 -0.0224379 -0.000245604)
(0.00816048 -0.00531744 0.000963277)
(0.0082422 -0.00152861 7.52366e-05)
(0.00759277 0.0011087 0.0018301)
(0.00369476 -0.00615859 0.000166141)
(-0.00285871 -0.0027097 0.00356947)
(0.000598856 -0.000407518 -3.51764e-05)
(0.0014231 -2.91951e-05 1.46966e-06)
(0.00144555 -1.00153e-05 -4.12088e-07)
(0.00135165 -6.25955e-06 3.35913e-07)
(0.00136346 -3.58599e-06 3.41724e-07)
(0.00135489 -2.26567e-06 4.18811e-07)
(0.00135158 -1.54531e-06 3.38305e-07)
(0.00134779 -1.14235e-06 3.37549e-07)
(0.00134429 -7.18686e-07 3.36422e-07)
(0.0013416 -6.86236e-07 3.3501e-07)
(0.00133903 -4.20903e-07 2.98557e-07)
(0.00133599 -4.4794e-07 2.66078e-07)
(0.00133263 -6.57016e-07 4.16149e-07)
(0.00132991 -3.45499e-07 3.23277e-07)
(0.00132775 -3.14935e-07 2.70089e-07)
(0.00132544 -1.7772e-07 3.29387e-07)
(0.00132298 -1.47088e-07 4.13978e-07)
(0.00132019 -3.72129e-09 3.42229e-07)
(0.00131733 -3.43294e-07 3.74034e-07)
(0.00131479 -1.16502e-07 3.06312e-07)
(0.0013122 9.15408e-08 3.32544e-07)
(0.0013092 2.355e-08 3.18859e-07)
(0.00130713 -1.06689e-07 2.14967e-07)
(0.00130553 6.45993e-07 1.38097e-07)
(0.0013031 9.29571e-07 7.71639e-07)
(0.00130117 9.38769e-07 4.79549e-07)
(0.00129861 7.80762e-07 2.25999e-07)
(0.00129495 5.156e-07 2.01039e-07)
(0.0012924 -1.20901e-08 -1.2295e-07)
(0.0012906 -1.33629e-07 3.2604e-07)
(0.00128848 1.49018e-09 2.82346e-07)
(0.00128585 -7.63628e-08 3.4768e-07)
(0.00128326 -3.02311e-07 3.07397e-07)
(0.00128034 3.85193e-08 3.59523e-07)
(0.00127764 6.04979e-08 3.55291e-07)
(0.00127525 -6.81202e-08 3.73419e-07)
(0.00127347 6.37622e-07 3.10065e-07)
(0.00127188 8.95348e-07 3.64391e-07)
(0.00126949 5.45128e-07 1.71081e-07)
(0.00126712 4.42466e-07 4.14987e-07)
(0.00126438 5.18504e-07 4.03764e-07)
(0.00126149 6.91685e-07 3.45593e-07)
(0.00125901 3.76564e-07 3.04124e-07)
(0.00125742 2.22538e-07 3.7409e-07)
(-0.000930671 0.000947337 -0.000311969)
(0.00340749 0.00131882 -9.99814e-05)
(0.000231559 -0.00436999 0.000112402)
(-0.0040887 -0.00278179 -0.0055669)
(0.000518259 -0.0032683 -0.00196194)
(0.0063876 0.00224077 -0.00106787)
(-0.00216305 0.000144699 -7.33601e-05)
(0.00148736 5.77637e-05 1.54428e-05)
(0.00145225 -9.40536e-06 2.97554e-07)
(0.00134904 -2.51914e-06 4.90065e-07)
(0.0013642 -8.04624e-07 3.42912e-07)
(0.0013552 1.05352e-07 3.37363e-07)
(0.00135176 -1.57687e-07 3.37826e-07)
(0.0013479 6.76891e-08 3.37491e-07)
(0.00134448 3.00008e-07 3.35875e-07)
(0.0013412 3.29925e-07 3.35105e-07)
(0.00133821 -1.80009e-07 3.35466e-07)
(0.00133535 -4.13589e-07 2.80539e-07)
(0.00133312 -5.79872e-07 3.02187e-07)
(0.00133071 -4.43869e-07 3.0901e-07)
(0.00132797 -3.26911e-07 2.38521e-07)
(0.00132539 -3.36725e-07 3.30107e-07)
(0.00132274 -3.78764e-07 3.20145e-07)
(0.00132009 -3.83837e-07 3.55155e-07)
(0.00131777 -3.49561e-07 2.62543e-07)
(0.00131533 -6.48243e-08 3.00639e-07)
(0.00131255 2.13361e-07 3.92015e-07)
(0.00131012 7.25818e-07 3.7477e-07)
(0.00130816 1.41293e-06 3.48018e-07)
(0.00130558 1.2113e-06 3.17497e-07)
(0.00130259 8.48372e-07 3.55584e-07)
(0.00129995 1.05389e-06 2.89374e-07)
(0.00129749 1.5834e-07 3.17457e-07)
(0.00129522 2.38493e-08 3.22501e-07)
(0.00129287 2.36694e-07 2.64707e-07)
(0.0012906 2.81944e-07 4.83488e-07)
(0.00128821 -1.63994e-08 3.90199e-07)
(0.00128586 -2.3201e-07 3.33617e-07)
(0.0012832 -5.01188e-07 1.94558e-07)
(0.00128044 -6.2379e-07 2.32492e-07)
(0.00127781 -1.78421e-08 3.31485e-07)
(0.00127626 5.29995e-07 5.17069e-07)
(0.00127412 7.49475e-07 5.56226e-07)
(0.00127127 6.24404e-07 2.96741e-07)
(0.00126899 1.54776e-07 2.92945e-07)
(0.0012668 9.71132e-08 3.1677e-07)
(0.00126461 2.0342e-08 3.66905e-07)
(0.00126156 4.06615e-07 3.05817e-07)
(0.00125882 2.89188e-07 3.69815e-07)
(0.00125695 4.24869e-07 5.30251e-07)
(0.00165547 -0.00430603 -0.000231837)
(-0.00225337 -0.0049886 0.000640426)
(-0.00482985 -0.00315886 -0.00436476)
(0.00964681 -0.00539784 -0.000116585)
(0.00837094 -0.00367435 0.000785704)
(0.00168564 0.00895898 -0.0015087)
(0.000346902 0.000288049 3.4838e-05)
(0.0010203 0.000426098 3.16511e-05)
(0.00145995 3.21868e-06 7.00364e-07)
(0.00136276 7.39091e-06 4.18787e-07)
(0.00136683 4.68754e-06 3.60819e-07)
(0.00135576 2.99463e-06 3.73707e-07)
(0.00135156 2.20301e-06 3.08705e-07)
(0.00134838 1.13453e-06 3.36783e-07)
(0.00134463 3.76679e-07 2.66468e-07)
(0.001341 1.79913e-07 3.37986e-07)
(0.00133811 2.20703e-07 3.34961e-07)
(0.00133549 7.09628e-08 3.30747e-07)
(0.0013326 3.36278e-07 3.41315e-07)
(0.00133023 1.90013e-07 3.14174e-07)
(0.00132789 -4.47414e-07 3.64193e-07)
(0.00132538 1.17245e-07 3.15006e-07)
(0.00132293 1.51664e-07 3.37237e-07)
(0.00132023 1.61054e-07 2.82569e-07)
(0.00131773 2.72728e-07 2.80288e-07)
(0.0013155 -1.56357e-07 3.4854e-07)
(0.00131319 2.13272e-07 3.81874e-07)
(0.00131069 4.08721e-07 3.00596e-07)
(0.00130772 6.54866e-07 5.07406e-07)
(0.00130482 4.55667e-07 2.9265e-07)
(0.0013029 2.88194e-07 3.52541e-07)
(0.0013003 -2.18345e-07 2.82013e-07)
(0.00129731 2.65533e-07 3.0416e-07)
(0.00129504 2.14157e-07 3.2181e-07)
(0.00129272 3.25574e-07 2.87045e-07)
(0.00129028 9.7418e-08 3.24055e-07)
(0.00128784 -1.85035e-08 2.39784e-07)
(0.00128524 -2.2258e-07 3.1721e-07)
(0.00128278 -2.91353e-07 3.20908e-07)
(0.00128095 -2.76652e-07 2.17751e-07)
(0.00127908 1.31966e-07 3.13794e-07)
(0.00127621 6.02098e-07 4.78433e-07)
(0.00127358 1.94619e-07 2.93397e-07)
(0.00127113 8.47963e-08 3.08691e-07)
(0.00126882 -2.26372e-07 3.19919e-07)
(0.00126696 -3.91248e-07 3.15606e-07)
(0.00126477 -9.23016e-07 1.08488e-07)
(0.00126182 -1.4076e-06 2.76796e-07)
(0.00125902 -5.32623e-07 3.25883e-07)
(0.00125653 6.99135e-08 3.33686e-07)
(-0.00168947 0.00317178 -1.87285e-05)
(-0.000858648 0.000270251 0.00617297)
(-0.0458363 -0.0165095 -0.00198927)
(0.0185889 -0.0561647 -0.00787697)
(-0.00604076 0.00431681 -0.00536014)
(-0.0181749 0.00608372 0.0037105)
(0.00215829 0.00166595 2.34132e-06)
(0.00130154 0.000113847 7.19242e-05)
(0.00142579 4.13176e-05 6.13436e-07)
(0.0013495 2.07171e-05 3.94449e-07)
(0.00135875 1.17499e-05 2.99414e-07)
(0.00135212 6.58329e-06 3.56722e-07)
(0.00134945 4.34676e-06 3.69145e-07)
(0.00134563 2.39789e-06 3.36358e-07)
(0.0013433 1.19416e-06 3.58683e-07)
(0.00134101 4.96506e-07 3.56943e-07)
(0.00133808 3.90978e-07 3.35318e-07)
(0.00133549 4.14459e-07 3.76545e-07)
(0.00133327 2.14217e-07 3.05645e-07)
(0.00132973 6.65451e-07 3.78889e-07)
(0.00132788 1.08369e-06 3.57964e-07)
(0.00132614 6.04572e-07 5.71439e-07)