/*--------------------------------*- C++ -*----------------------------------*\
| =========                 |                                                 |
| \\      /  F ield         | OpenFOAM: The Open Source CFD Toolbox           |
|  \\    /   O peration     | Version:  5.0                                   |
|   \\  /    A nd           | Web:      www.OpenFOAM.org                      |
|    \\/     M anipulation  |                                                 |
\*---------------------------------------------------------------------------*/
FoamFile
{
    version     2.0;
    format      ascii;
    class       volVectorField;
    location    "4";
    object      U_0;
}
// * * * * * * * * * * * * * * * * * * * * * * * * * * * * * * * * * * * * * //

dimensions      [0 1 -1 0 0 0 0];

internalField   nonuniform List<vector> 
8941
(
(0.0219888 -0.0015497 -0.00463619)
(0.00959751 -0.0056071 0.00496549)
(-0.00398433 0.000780546 0.000347042)
(-0.00151662 -0.00444457 -0.000285766)
(-0.0106857 0.0104326 -0.000483086)
(0.00158227 0.00300721 0.000257842)
(0.000505384 2.97128e-05 4.82487e-05)
(0.000815761 1.03167e-05 -1.85474e-06)
(0.000794732 2.7497e-05 -1.76555e-07)
(0.000804894 9.11131e-06 7.19355e-08)
(0.000810101 6.14885e-06 1.06582e-07)
(0.000812128 3.21232e-06 5.89365e-08)
(0.000813484 1.87896e-06 3.09758e-09)
(0.000813584 1.23897e-06 9.21771e-08)
(0.000812866 7.63335e-07 4.20757e-08)
(0.000811791 5.13871e-07 3.50431e-08)
(0.000810572 1.73208e-07 5.36343e-08)
(0.000809096 1.57352e-07 1.22342e-07)
(0.000807591 8.10859e-08 8.07668e-08)
(0.000806152 1.98862e-08 8.29762e-08)
(0.000804782 -5.96107e-08 3.92668e-08)
(0.000803298 7.84455e-08 8.3412e-08)
(0.000801678 -1.20284e-08 4.94389e-08)
(0.000800192 3.4838e-08 4.71934e-08)
(0.000798623 2.00448e-07 4.64e-08)
(0.000797006 2.84066e-07 6.06001e-08)
(0.000795733 2.37518e-07 5.99822e-08)
(0.00079466 7.87696e-08 5.06146e-08)
(0.000792548 1.37344e-07 6.93696e-08)
(0.000790534 -2.1461e-07 4.05526e-08)
(0.00078939 -7.05135e-07 -6.00204e-08)
(0.000787776 -6.0783e-07 1.00978e-08)
(0.00078654 -5.65026e-07 8.3013e-08)
(0.000785434 -4.50106e-07 5.58761e-08)
(0.000783908 -9.35255e-08 6.24393e-08)
(0.000782267 7.11666e-08 4.7616e-08)
(0.00078065 4.51595e-08 4.77017e-08)
(0.000779199 1.02313e-07 4.42709e-08)
(0.00077774 3.56563e-07 -8.26485e-09)
(0.000776612 4.33235e-07 6.88123e-08)
(0.000775376 7.76638e-08 2.84646e-08)
(0.000773668 4.274e-08 7.48081e-08)
(0.000772561 -4.44394e-07 -5.0125e-08)
(0.000771158 -3.19254e-07 2.51581e-07)
(0.000769459 -1.91018e-07 3.20485e-08)
(0.000768074 -1.97049e-07 -1.62076e-07)
(0.000766674 -2.54881e-07 5.1159e-08)
(0.00076543 -4.96974e-07 1.61799e-07)
(0.000763731 -2.96736e-07 -2.44713e-08)
(0.000761948 -2.18154e-07 6.74867e-08)
(0.0179367 0.00948898 -0.000386925)
(-0.00802993 0.00889538 -0.00099859)
(0.0079884 -0.00123189 0.000187465)
(0.00689058 0.00284555 -8.74251e-05)
(-0.00218869 0.000754476 0.000619693)
(0.00348238 -0.0107426 0.000141711)
(0.000770593 6.64142e-05 -9.61225e-06)
(0.000410578 -1.19903e-05 -1.07521e-06)
(0.000833472 1.11361e-07 -9.47369e-07)
(0.000788471 -5.73804e-06 -4.14032e-07)
(0.000808947 -2.66186e-06 1.84855e-07)
(0.000810702 -1.7994e-06 4.77908e-08)
(0.00081287 -1.08127e-06 6.37909e-08)
(0.000813076 -7.02393e-07 5.14428e-08)
(0.000812671 -4.94231e-07 5.09818e-08)
(0.000811597 -3.52852e-07 5.24331e-08)
(0.000810305 -1.51133e-08 5.1201e-08)
(0.000809217 2.22347e-07 8.07578e-08)
(0.000807867 3.75122e-07 8.73995e-08)
(0.000806295 2.06944e-07 2.35877e-08)
(0.000804681 3.47959e-07 5.85652e-08)
(0.000803059 1.79579e-07 4.9726e-08)
(0.000801587 3.92062e-07 7.92578e-08)
(0.000800331 3.02985e-07 6.15144e-08)
(0.00079886 2.88071e-07 2.73382e-08)
(0.000797188 3.30324e-08 6.47485e-08)
(0.000795464 -2.01983e-09 1.79435e-08)
(0.000793918 -2.5198e-07 4.78588e-08)
(0.000792356 -9.00843e-07 6.95974e-08)
(0.000790456 -5.65978e-07 7.0534e-08)
(0.000789163 -4.7743e-07 1.31073e-07)
(0.000788096 -2.86413e-07 5.12511e-08)
(0.000786631 3.10737e-07 1.89509e-07)
(0.000785567 4.00543e-07 2.04777e-07)
(0.000784185 1.20419e-07 5.0348e-08)
(0.000782389 3.68762e-08 3.21686e-08)
(0.00078099 1.5165e-07 3.89163e-08)
(0.000779603 2.05778e-07 5.3909e-08)
(0.000778054 3.4879e-07 1.70785e-08)
(0.000776347 5.04619e-07 3.48044e-08)
(0.000774896 1.48373e-07 5.7435e-08)
(0.000773424 -8.66806e-08 6.06035e-08)
(0.000772006 -1.55278e-07 4.3941e-08)
(0.000771031 -4.16067e-07 5.50123e-08)
(0.000769605 -1.36038e-07 3.86595e-08)
(0.000768036 -1.50307e-07 5.46483e-08)
(0.000766676 2.30092e-08 6.39186e-08)
(0.000765299 -1.48453e-07 3.90223e-08)
(0.000763709 -3.76105e-07 8.62251e-08)
(0.000762689 -2.38346e-07 2.89328e-08)
(0.00297941 -0.00334223 0.000803231)
(0.00242411 -0.0084777 -6.88312e-05)
(0.00468315 -0.000835991 8.05681e-05)
(0.00128564 -0.00440394 0.00060254)
(-0.0011715 -0.000540809 -0.00120129)
(-0.00151279 0.00985948 -0.000137784)
(0.00127179 -0.000285602 0.000104885)
(0.000445283 -2.91753e-05 -1.73771e-06)
(0.000847188 -2.78611e-05 -2.38092e-06)
(0.000801296 -1.72294e-05 -4.0369e-07)
(0.000815037 -1.03675e-05 1.32993e-07)
(0.000814111 -6.38745e-06 3.13545e-08)
(0.000814862 -3.956e-06 5.44488e-08)
(0.000814322 -2.50256e-06 5.12273e-08)
(0.000813307 -1.57439e-06 5.47149e-08)
(0.000812392 -1.08573e-06 5.80416e-08)
(0.000811292 -6.44003e-07 -3.0561e-08)
(0.000809584 -4.36995e-07 4.9173e-08)
(0.000807571 -4.47505e-07 6.47006e-08)
(0.000806116 -2.79998e-07 4.36386e-08)
(0.000804746 -3.38145e-07 3.6504e-08)
(0.00080335 -1.09781e-07 4.77151e-08)
(0.000801829 -4.98957e-08 6.20657e-08)
(0.000800059 -8.23492e-09 -9.87717e-08)
(0.000798284 -3.188e-07 5.34027e-08)
(0.000796641 -1.47753e-07 9.82566e-08)
(0.000795377 -2.33486e-07 6.45846e-08)
(0.00079354 -1.3597e-07 6.07625e-08)
(0.00079216 -9.27596e-08 -5.26842e-08)
(0.000791069 3.56116e-07 9.12114e-08)
(0.000789743 7.46758e-07 9.17427e-08)
(0.000788762 6.92033e-07 6.35046e-08)
(0.000787397 5.1258e-07 2.88219e-07)
(0.000785193 5.3262e-07 1.45855e-07)
(0.000783451 1.81421e-07 8.69254e-08)
(0.000782305 1.6257e-07 4.96961e-08)
(0.00078086 1.21218e-07 1.18888e-07)
(0.000779442 1.4423e-08 4.74977e-08)
(0.00077811 1.79966e-08 4.37717e-08)
(0.000776358 -1.18305e-07 2.95688e-08)
(0.000774635 5.03312e-08 6.52003e-08)
(0.000773289 -1.24157e-08 6.64619e-08)
(0.000772152 2.07713e-07 1.3581e-07)
(0.000771185 1.20749e-07 9.77257e-08)
(0.000769795 1.00359e-07 8.45146e-08)
(0.000768274 1.69469e-07 5.26079e-08)
(0.000766677 3.1131e-07 6.81133e-08)
(0.000764932 1.51113e-07 7.55771e-08)
(0.000763624 8.06476e-08 6.34272e-08)
(0.000762714 7.54492e-08 8.30424e-08)
(0.00359476 -0.0014213 5.24764e-05)
(0.00304093 0.00235795 -6.23822e-05)
(0.000188504 -0.00665622 0.000178246)
(0.00287201 -0.00900806 -0.000240644)
(0.0154546 0.00499289 -0.000142494)
(-0.000613124 0.00282711 -6.82552e-05)
(0.00302934 -0.00113854 -3.50765e-05)
(0.000343736 -1.58624e-05 9.26004e-06)
(0.000870258 -3.75641e-05 -1.4219e-06)
(0.000810762 -2.19308e-05 -4.05633e-07)
(0.000822564 -1.33864e-05 1.71332e-07)
(0.000818756 -8.06137e-06 1.91508e-08)
(0.000817751 -5.10766e-06 6.10438e-08)
(0.000816069 -3.09566e-06 5.31539e-08)
(0.000814453 -1.86176e-06 5.16282e-08)
(0.000812767 -1.09463e-06 5.16289e-08)
(0.000811121 -9.19599e-07 4.45995e-08)
(0.000809467 -8.52931e-07 3.5751e-08)
(0.000808067 -7.52664e-07 5.03047e-08)
(0.000806435 -5.17692e-07 3.00131e-08)
(0.000804896 -4.33096e-07 7.90397e-08)
(0.000803421 -3.426e-07 5.17506e-08)
(0.000801715 -5.09195e-07 1.74515e-09)
(0.000799996 -3.50709e-07 3.58024e-08)
(0.000798686 -3.3234e-07 1.00029e-07)
(0.000797296 -1.53444e-08 6.21332e-08)
(0.00079548 1.54499e-07 6.11413e-08)
(0.000794095 2.75641e-07 7.67173e-08)
(0.00079297 8.22944e-07 7.70451e-09)
(0.000791502 7.10464e-07 3.92848e-08)
(0.000789578 7.892e-07 1.83129e-08)
(0.000787798 7.49942e-07 -2.90954e-08)
(0.000786427 2.43119e-07 4.27393e-08)
(0.00078515 -6.11543e-08 4.77259e-08)
(0.000783721 1.32857e-07 4.50325e-08)
(0.000782313 1.00665e-07 4.22439e-08)
(0.000780804 2.89183e-08 5.2982e-08)
(0.000779474 -5.76107e-09 3.82212e-08)
(0.000777888 -2.9796e-07 1.31365e-08)
(0.000776388 -2.8016e-07 8.58423e-09)
(0.000775028 7.40555e-09 5.43476e-08)
(0.000773619 1.96658e-07 4.39654e-08)
(0.00077217 5.3941e-07 1.15324e-07)
(0.000770894 5.81098e-07 -4.71235e-08)
(0.000769663 9.81182e-08 3.25696e-08)
(0.000768296 2.43944e-08 4.00596e-08)
(0.00076665 -7.71453e-08 8.47067e-08)
(0.000765009 5.46717e-08 3.0929e-08)
(0.000763611 2.61121e-07 4.4473e-08)
(0.000762493 2.23094e-07 4.81447e-08)
(0.00442699 -0.00583732 -8.11251e-05)
(-0.000218131 -0.00258458 0.000547642)
(-0.00923628 -0.00452527 -0.000130373)
(-0.00743164 0.000671228 -0.000398397)
(0.000222718 0.00214022 0.00028913)
(0.00150909 -0.000212213 -6.66802e-05)
(0.000542062 -0.000274589 -9.35539e-06)
(0.000473078 -0.000108469 3.01558e-05)
(0.000893505 -3.08883e-05 -1.91675e-06)
(0.000831825 -1.6441e-05 -4.07277e-07)
(0.000832466 -1.04637e-05 1.16132e-07)
(0.000824514 -6.50538e-06 5.42452e-08)
(0.000821101 -3.83755e-06 9.85856e-08)
(0.000818399 -2.46563e-06 5.27678e-08)
(0.00081582 -1.59417e-06 4.31635e-08)
(0.000813577 -9.76903e-07 5.11529e-08)
(0.000811599 -5.54374e-07 4.99789e-08)
(0.000809797 -3.7117e-07 5.60594e-08)
(0.000807995 -8.07117e-08 2.34615e-07)
(0.00080652 -4.97866e-08 7.22817e-08)
(0.000804969 1.27981e-08 6.77744e-08)
(0.000803259 6.19044e-08 6.14288e-08)
(0.000801823 3.54269e-08 4.04242e-08)
(0.000800283 6.35074e-08 4.95382e-08)
(0.000798705 2.36229e-07 1.1208e-07)
(0.00079725 1.01264e-08 7.20127e-08)
(0.000795739 1.41776e-07 6.8684e-08)
(0.00079437 1.9834e-07 1.282e-08)
(0.000792697 1.92911e-07 1.46133e-09)
(0.000791019 6.63712e-08 2.91189e-08)
(0.000789785 2.13554e-08 5.72798e-08)
(0.000788074 -1.51942e-07 3.40727e-08)
(0.000786379 1.43645e-07 4.17498e-09)
(0.000785054 8.61932e-08 4.93862e-08)
(0.000783652 1.50621e-07 6.15447e-08)
(0.000782174 2.06272e-08 4.60099e-08)
(0.000780727 -3.82747e-08 6.0468e-08)
(0.000779035 -7.60379e-08 6.37875e-08)
(0.000777769 -8.82972e-08 9.5993e-08)
(0.000776742 2.5362e-08 8.72178e-08)
(0.000775231 6.08848e-08 7.45987e-08)
(0.000773951 1.33411e-07 3.08252e-07)
(0.000772629 1.14466e-07 2.01748e-09)
(0.000770629 2.08458e-07 -2.70154e-09)
(0.000769097 -3.42472e-08 3.97431e-08)
(0.000768054 -1.91416e-07 4.79474e-08)
(0.000766715 -4.65261e-07 -4.22794e-08)
(0.000765354 -3.64611e-07 -1.73625e-07)
(0.000763829 -2.20427e-07 1.27897e-07)
(0.000762111 1.06318e-07 9.34412e-08)
(0.00755014 0.00221649 -0.000701124)
(0.00579325 -0.00717088 0.000336411)
(0.00332933 -0.00288133 -0.00441679)
(-0.0108127 -0.018433 -0.000436666)
(0.00253455 0.000767368 0.000197797)
(-0.00632739 -0.000790429 0.000206165)
(0.00104916 -0.000594235 -3.86766e-06)
(0.000508228 8.03719e-06 5.08935e-05)
(0.000888916 3.13226e-07 -1.88494e-06)
(0.000835653 -2.64537e-06 -2.98256e-07)
(0.000835054 -2.27352e-06 1.35275e-07)
(0.000827081 -1.75557e-06 4.41518e-08)
(0.000822827 -9.99295e-07 -1.00452e-08)
(0.000818889 -7.1732e-07 5.00849e-08)
(0.000816324 -4.30304e-07 1.5687e-07)
(0.000814073 -3.64703e-07 1.04753e-07)
(0.000811882 -2.11014e-07 5.21024e-08)
(0.00081006 5.69438e-09 6.69591e-08)
(0.000808469 -2.18975e-08 4.44577e-08)
(0.000806551 3.00112e-07 2.00092e-07)
(0.000805035 2.63093e-07 -1.31992e-08)
(0.000803449 2.47366e-07 8.09938e-08)
(0.000801716 2.9721e-07 5.38001e-08)
(0.000800246 1.91052e-07 8.38013e-08)
(0.000798619 2.09296e-07 5.02134e-08)
(0.000797177 1.76249e-07 6.63529e-08)
(0.000795714 1.90663e-08 3.89332e-08)
(0.000794156 -9.70474e-08 1.70364e-08)
(0.000792803 -1.40513e-07 1.00644e-07)
(0.000791286 -3.1362e-07 8.96439e-08)
(0.000789304 -4.66455e-07 -1.80482e-08)
(0.000787949 -3.42904e-07 9.19567e-08)
(0.000786724 -2.5721e-07 1.412e-08)
(0.000785157 -1.32764e-07 5.36772e-08)
(0.000783638 -1.28504e-07 5.81509e-08)
(0.000782077 -1.51229e-08 4.53673e-08)
(0.000780684 3.76487e-08 5.50302e-08)
(0.000779413 6.76506e-08 6.83086e-08)
(0.000778016 3.20129e-07 5.08341e-08)
(0.000776575 1.98565e-07 5.72549e-08)
(0.000775163 1.67745e-07 3.55453e-08)
(0.000773686 2.6225e-07 2.26787e-07)
(0.000772264 -4.95554e-08 6.29483e-08)
(0.000770709 -2.66544e-07 4.51449e-08)
(0.000769165 -1.11981e-07 4.34681e-08)
(0.000767761 -2.01444e-07 4.70072e-08)
(0.000766438 -4.8326e-07 -3.35161e-07)
(0.000765318 -5.40314e-07 4.61372e-08)
(0.000764201 -4.77008e-07 9.69635e-08)
(0.000762635 -1.77023e-07 1.87268e-07)
(-0.00135495 0.00289378 -0.000163518)
(0.0105606 -0.0021649 0.000654901)
(0.00166044 -0.00197741 -0.00439951)
(-0.0237381 -0.0129469 0.00399088)
(-0.0137768 0.0070545 -0.000604307)
(0.00050691 0.00204394 -0.000555984)
(0.00180929 -0.000126822 6.28662e-05)
(0.00045983 8.98936e-05 4.48144e-05)
(0.000886581 1.10133e-05 -1.64121e-06)
(0.000829628 6.15552e-06 -3.40477e-07)
(0.000833583 3.89327e-06 1.53706e-07)
(0.00082611 2.49142e-06 3.69668e-08)
(0.000822403 1.36193e-06 5.49827e-08)
(0.000819112 8.8932e-07 4.89498e-08)
(0.000816263 4.59146e-07 4.41765e-08)
(0.000813853 3.76641e-07 5.42671e-08)
(0.000812063 2.82736e-07 5.1175e-08)
(0.000810033 2.93443e-07 4.50681e-08)
(0.000808361 1.7598e-07 6.9968e-08)
(0.000806873 3.2023e-08 5.82753e-08)
(0.0008049 2.02786e-07 2.75301e-08)
(0.000803298 7.85525e-08 4.52249e-08)
(0.00080175 2.31172e-07 3.6368e-08)
(0.000800171 1.10277e-07 5.20679e-08)
(0.000798684 1.92403e-07 4.11636e-09)
(0.000797011 2.11156e-07 1.71355e-07)
(0.000795397 -9.30261e-09 5.44765e-08)
(0.000794172 -7.74823e-08 6.83588e-08)
(0.000792429 -3.73334e-07 2.79378e-08)
(0.000790614 -5.81264e-07 3.39791e-08)
(0.000789752 -2.9296e-07 7.99307e-08)
(0.00078834 -4.93535e-08 7.12432e-08)
(0.000786645 -6.58128e-08 4.3057e-08)
(0.000785217 -7.72494e-08 6.21135e-08)
(0.0007838 -1.03158e-07 1.48841e-07)
(0.000782383 2.86699e-08 5.27317e-08)
(0.00078083 1.66941e-07 4.59877e-08)
(0.000779387 2.13882e-07 4.41043e-08)
(0.000777932 1.46256e-07 7.40947e-08)
(0.00077655 2.34832e-07 1.59468e-08)
(0.00077531 7.8117e-08 4.23404e-08)
(0.000773679 4.05847e-09 -1.7106e-08)
(0.000771968 -3.8104e-08 -2.76285e-09)
(0.000770553 -1.0325e-07 2.88425e-08)
(0.00076918 -2.55033e-08 1.27175e-08)
(0.000767593 6.80711e-09 4.88966e-08)
(0.000766295 -1.69825e-08 -4.33803e-08)
(0.000765367 -3.1376e-07 6.75938e-08)
(0.000764292 -2.30713e-07 2.27101e-08)
(0.000762928 -3.20747e-07 4.49312e-09)
(-0.00837618 0.00519725 -9.46701e-05)
(-0.0297542 -0.0161984 0.00198618)
(0.00877376 -0.0147616 0.00114859)
(-0.00864856 -0.0142186 0.00242562)
(0.0111686 -0.0125739 0.00149532)
(-0.020041 -0.00158219 -0.00112434)
(0.000904929 1.17813e-05 -1.58645e-05)
(0.0003592 2.0578e-05 5.82624e-06)
(0.000886474 2.17469e-05 -1.9395e-06)
(0.000826424 1.39794e-05 -3.84397e-07)
(0.000830434 8.94993e-06 1.20895e-07)
(0.000823895 5.70223e-06 2.91429e-08)
(0.00082081 3.60414e-06 5.16473e-08)
(0.000817753 2.25315e-06 5.11876e-08)
(0.000815678 1.39466e-06 2.29434e-07)
(0.000813849 9.17057e-07 5.28432e-08)
(0.000811775 5.42339e-07 9.99911e-08)
(0.000809925 2.75806e-07 6.03056e-08)
(0.000808141 4.15742e-07 1.38149e-08)
(0.000806583 1.47307e-07 4.3025e-08)
(0.000805092 -2.08674e-08 4.76271e-08)
(0.000803483 1.86214e-08 4.44778e-08)
(0.000801755 -1.94501e-07 4.51875e-08)
(0.000800197 -1.00019e-07 4.84864e-08)
(0.000798744 -2.97311e-07 6.6817e-08)
(0.000796924 -2.88295e-07 8.14615e-09)
(0.000795353 -6.7362e-08 3.78053e-08)
(0.000793704 1.11639e-08 9.50347e-08)
(0.000792178 -1.96667e-07 3.27503e-08)
(0.000791392 3.03635e-07 5.99675e-08)
(0.000789973 3.98065e-07 8.59918e-08)
(0.000788235 1.57686e-07 4.39676e-08)
(0.00078669 2.84722e-07 3.83215e-08)
(0.000785112 9.22742e-08 4.63338e-08)
(0.000783771 5.31626e-08 6.59517e-08)
(0.000782415 -8.19269e-08 6.22691e-08)
(0.000780915 -1.2917e-07 5.56493e-08)
(0.000779386 -1.03475e-07 2.25482e-08)
(0.00077804 9.28499e-08 4.15347e-08)
(0.000776488 1.47896e-07 5.47935e-08)
(0.000774874 -7.27141e-08 2.19344e-08)
(0.000773541 -1.6782e-07 5.17034e-08)
(0.00077213 -8.41458e-08 5.73722e-08)
(0.000770725 -6.47115e-08 4.81568e-08)
(0.000769303 2.6286e-08 4.51509e-08)
(0.000767772 1.62104e-07 4.5692e-08)
(0.000766038 4.8708e-07 5.84901e-08)
(0.000765053 6.41566e-07 7.20207e-08)
(0.000764201 2.39995e-07 3.46305e-08)
(0.000763325 -4.0501e-08 -2.60228e-08)
(0.00327702 0.00815312 -0.00106972)
(0.0164354 0.00690748 0.000646971)
(0.0281582 0.0132279 -0.00120548)
(-0.0442787 -0.0186867 0.00207056)
(-0.0035393 -0.00652425 0.000310548)
(0.0104811 0.00252323 -0.000212357)
(0.00100489 -0.00057644 0.000124145)
(0.000489045 4.0299e-05 4.79746e-07)
(0.000871596 1.98027e-05 -1.42937e-06)
(0.000813175 1.84006e-05 -2.54917e-07)
(0.000823176 1.07891e-05 1.55579e-07)
(0.000819389 7.1891e-06 2.55809e-08)
(0.000818067 4.55266e-06 5.44312e-08)
(0.000816335 2.8399e-06 5.06105e-08)
(0.000814583 1.94608e-06 3.85452e-08)
(0.000812781 1.17212e-06 1.29097e-07)
(0.000811258 7.42432e-07 9.52065e-08)
(0.000809872 3.5737e-07 4.19138e-07)
(0.000808198 2.71151e-07 4.24055e-08)
(0.000806327 2.77876e-07 7.99298e-08)
(0.000804739 1.82171e-07 4.89497e-08)
(0.000803083 -1.09121e-07 -5.898e-09)
(0.000801603 -2.04674e-07 3.94213e-08)
(0.000800045 -2.00387e-07 5.27072e-08)
(0.000798452 -3.1028e-07 3.50918e-08)
(0.000797301 -3.57596e-07 -9.83733e-08)
(0.000795773 -1.36504e-07 1.73417e-08)
(0.000794012 -6.36572e-08 4.72122e-08)
(0.000792794 1.35839e-07 1.10416e-07)
(0.000791357 3.73386e-07 4.58676e-08)
(0.000789568 2.29981e-07 3.1572e-08)
(0.000788196 1.17091e-07 4.45818e-08)
(0.000786562 -2.53863e-08 -3.00316e-07)
(0.000784926 -9.14571e-08 -2.10003e-08)
(0.000783583 -1.35358e-07 4.64421e-08)
(0.000782155 -2.83033e-07 2.56499e-08)
(0.000780805 -2.95043e-07 6.0186e-08)
(0.000779665 -2.54579e-07 5.91599e-08)
(0.000778245 -4.32518e-07 8.54198e-08)
(0.000776343 -5.75123e-07 3.30104e-08)
(0.000774915 -2.66997e-07 4.92388e-08)
(0.000773666 -1.67794e-07 2.61091e-08)
(0.000772098 1.60319e-07 5.14958e-08)
(0.000770691 9.32962e-08 5.83157e-08)
(0.000769463 1.50409e-07 5.20669e-08)
(0.000768167 2.12188e-07 5.34933e-08)
(0.000766891 4.25815e-07 6.45461e-08)
(0.000765054 1.02423e-06 2.57796e-08)
(0.000763438 6.67228e-07 -1.01319e-07)
(0.000762675 3.57133e-07 8.95978e-08)
(-0.00261332 -0.00988259 0.000362979)
(0.0234762 0.0118912 -0.00179783)
(0.0160009 0.0125788 0.000630384)
(0.0105897 -0.00462218 -1.21043e-05)
(0.00199709 0.0177411 -4.31059e-05)
(0.00283291 0.0025595 8.96605e-05)
(0.000782709 5.99027e-05 8.1751e-06)
(0.000842786 6.7912e-05 -2.32691e-06)
(0.000814669 1.59028e-05 -1.63149e-07)
(0.000815134 1.63379e-05 6.23501e-08)
(0.000816358 9.3719e-06 9.10063e-08)
(0.000816061 5.91413e-06 4.33968e-08)
(0.000815349 3.58408e-06 7.90958e-08)
(0.000814478 2.26222e-06 -2.8326e-08)
(0.000813582 1.39164e-06 4.4688e-08)
(0.000812337 8.95127e-07 4.79378e-08)
(0.000810752 6.03388e-07 4.39611e-08)
(0.000809333 3.49082e-07 1.25966e-07)
(0.000808039 -1.63015e-08 6.85085e-08)
(0.00080647 -1.3667e-07 1.39048e-08)
(0.000804608 -1.57088e-07 5.79099e-08)
(0.000803 -1.02966e-07 7.6476e-08)
(0.000801643 1.44233e-08 5.80837e-08)
(0.000800067 -4.33089e-08 4.8787e-08)
(0.000798551 1.32284e-07 6.04747e-08)
(0.000797145 9.43582e-08 -5.31066e-09)
(0.000795723 -1.04184e-07 1.7803e-07)
(0.000794045 6.22219e-08 4.41621e-08)
(0.000792723 4.15079e-07 9.98107e-10)
(0.000791507 -1.34501e-07 7.52104e-08)
(0.00078965 -2.4338e-07 9.02652e-08)
(0.000787915 -2.78311e-07 5.95469e-08)
(0.00078643 -5.81368e-07 2.57667e-08)
(0.000784976 -2.98898e-07 1.45132e-07)
(0.000783533 -1.77935e-07 6.85231e-08)
(0.000782217 -4.04914e-08 6.45417e-08)
(0.000780952 -8.90473e-08 5.76383e-08)
(0.000779216 -1.64193e-07 4.56438e-08)
(0.000777643 -4.63809e-07 5.17201e-09)
(0.000776699 -5.70921e-07 6.40095e-08)
(0.000775386 -2.5081e-07 6.09758e-08)
(0.000774076 -2.04408e-07 1.9926e-08)
(0.000772457 -2.50431e-07 1.17171e-07)
(0.000770712 1.66226e-07 1.18801e-08)
(0.000769451 1.23615e-07 5.35976e-08)
(0.000768114 1.65253e-07 5.88733e-08)
(0.000767049 5.03157e-08 1.78811e-08)
(0.000765348 -7.47121e-09 3.04355e-08)
(0.000763353 3.51998e-07 -1.2976e-08)
(0.000762047 2.32777e-07 6.95628e-08)
(-0.0225386 -0.0302931 -0.0205905)
(0.0213683 -0.00860237 0.0201094)
(-0.00118691 -0.0106287 -0.00134968)
(-0.0189249 -0.0319833 -0.00361834)
(0.00467365 0.00482877 0.00414253)
(0.0112438 0.0122358 0.00109004)
(0.000870222 0.000107137 7.02248e-05)
(0.00136736 1.44167e-05 3.30751e-07)
(0.001328 4.46313e-05 3.20262e-07)
(0.00134268 1.4618e-05 3.60399e-07)
(0.0013501 9.91292e-06 3.84625e-07)
(0.00135274 5.14602e-06 3.42599e-07)
(0.00135465 3.00098e-06 2.66669e-07)
(0.0013545 2.02308e-06 3.45873e-07)
(0.00135307 1.23241e-06 2.60115e-07)
(0.00135124 8.18419e-07 2.88614e-07)
(0.00134917 2.67047e-07 3.40725e-07)
(0.00134673 2.28439e-07 3.78101e-07)
(0.00134418 9.86616e-08 4.05072e-07)
(0.00134177 -3.68017e-09 3.34073e-07)
(0.00133952 -8.11234e-08 3.00724e-07)
(0.00133701 2.00706e-07 3.57962e-07)
(0.00133431 7.16058e-08 3.18931e-07)
(0.00133185 1.26412e-07 2.92758e-07)
(0.00132931 4.32443e-07 3.06317e-07)
(0.00132665 5.74934e-07 3.43459e-07)
(0.00132447 4.33073e-07 2.87635e-07)
(0.00132267 1.45719e-07 3.41356e-07)
(0.0013192 2.33432e-07 3.52335e-07)
(0.00131587 -3.99668e-07 3.20125e-07)
(0.00131392 -1.19313e-06 2.35566e-07)
(0.00131119 -1.02187e-06 2.0513e-07)
(0.00130912 -8.97341e-07 3.74131e-07)
(0.00130736 -6.35943e-07 3.17294e-07)
(0.00130485 -6.61893e-08 4.41202e-07)
(0.00130208 1.71698e-07 3.19389e-07)
(0.00129935 1.02215e-07 3.19732e-07)
(0.00129683 2.24151e-07 2.96066e-07)
(0.00129452 6.85598e-07 1.58568e-07)
(0.0012927 7.15576e-07 3.49218e-07)
(0.00129052 1.40134e-07 2.86375e-07)
(0.00128769 7.49142e-08 3.53359e-07)
(0.00128595 -6.93389e-07 1.45674e-07)
(0.00128349 -5.05721e-07 7.25843e-07)
(0.00128058 -3.2919e-07 2.95701e-07)
(0.00127832 -3.40763e-07 -6.73619e-08)
(0.00127601 -3.76961e-07 2.88824e-07)
(0.00127396 -7.61948e-07 4.51234e-07)
(0.00127109 -4.99505e-07 2.10558e-07)
(0.00126811 -3.90296e-07 3.46718e-07)
(-0.00655009 -0.00421586 0.000454046)
(0.0120731 0.015601 -0.00441767)
(-0.00293806 -0.00793934 -0.000255201)
(-0.0066211 0.000584248 0.000368679)
(-0.0138354 -0.000480745 0.00137045)
(-0.00571732 -0.00217909 0.00138977)
(0.000300763 0.000166236 -6.75516e-05)
(0.00124088 -3.33745e-05 2.13692e-07)
(0.00139233 2.68494e-06 4.01968e-07)
(0.00131509 -7.95639e-06 3.29597e-07)
(0.00134791 -3.48166e-06 3.37397e-07)
(0.00135022 -2.40514e-06 3.38036e-07)
(0.00135345 -1.44143e-06 3.39305e-07)
(0.00135358 -1.00953e-06 3.38451e-07)
(0.00135277 -7.0758e-07 3.38287e-07)
(0.00135092 -5.19107e-07 2.87391e-07)
(0.00134876 -1.27736e-08 3.46908e-07)
(0.00134691 3.33128e-07 4.0237e-07)
(0.00134461 5.5457e-07 4.42649e-07)
(0.001342 3.2214e-07 3.05849e-07)
(0.00133938 5.5792e-07 1.97871e-07)
(0.00133671 2.9019e-07 3.61071e-07)
(0.0013342 6.63436e-07 3.48861e-07)
(0.00133214 5.40586e-07 7.07999e-07)
(0.00132968 5.55088e-07 1.90878e-07)
(0.00132681 1.10326e-07 3.35976e-07)
(0.00132397 3.01811e-08 3.10412e-07)
(0.00132146 -4.12475e-07 3.30569e-07)
(0.00131884 -1.50599e-06 4.16801e-07)
(0.0013157 -9.54239e-07 3.03707e-07)
(0.00131359 -7.80097e-07 3.64409e-07)
(0.0013118 -4.73446e-07 3.11348e-07)
(0.00130942 6.14161e-07 6.31419e-07)
(0.0013076 7.36238e-07 7.04757e-07)
(0.00130523 2.2887e-07 3.00987e-07)
(0.00130224 7.97146e-08 2.70278e-07)
(0.0012999 2.77215e-07 3.09087e-07)
(0.00129765 3.98692e-07 3.66557e-07)
(0.00129498 6.97553e-07 3.20609e-07)
(0.00129209 8.5382e-07 3.20183e-07)
(0.00128969 2.39162e-07 3.36369e-07)
(0.00128724 -1.53088e-07 3.63893e-07)
(0.00128487 -2.72449e-07 3.81842e-07)
(0.00128328 -7.69583e-07 5.17743e-07)
(0.00128094 -2.53448e-07 3.3622e-07)
(0.00127834 -2.70613e-07 3.36509e-07)
(0.00127606 9.79135e-08 4.70736e-07)
(0.00127371 -2.16276e-07 3.11265e-07)
(0.00127107 -5.87544e-07 3.65114e-07)
(0.00126934 -4.0271e-07 2.23838e-07)
(0.00997481 -0.0222843 -0.000250083)
(0.00787975 -0.00503501 0.00093857)
(0.00783534 -0.00184957 7.45908e-05)
(0.00866506 0.000497344 0.00189221)
(0.00436641 -0.00685344 0.000254846)
(-0.00378237 -0.00324435 0.00276956)
(0.000453731 -0.000570865 -3.77459e-05)
(0.00133593 -7.58414e-05 1.8017e-06)
(0.00141223 -4.16717e-05 -4.16883e-07)
(0.00133471 -2.58518e-05 3.31278e-07)
(0.00135704 -1.55329e-05 3.40106e-07)
(0.00135529 -9.56064e-06 3.22097e-07)
(0.0013564 -5.92357e-06 3.39536e-07)
(0.00135542 -3.7498e-06 3.39815e-07)
(0.00135369 -2.36273e-06 3.39193e-07)
(0.00135211 -1.63875e-06 3.36916e-07)
(0.00135023 -9.88721e-07 1.42694e-07)
(0.00134744 -6.95765e-07 2.72632e-07)
(0.00134417 -7.57959e-07 3.47266e-07)
(0.00134178 -4.7089e-07 3.26099e-07)
(0.00133948 -5.44211e-07 2.93424e-07)
(0.00133714 -1.9894e-07 3.34308e-07)
(0.00133462 -9.63699e-08 3.70766e-07)
(0.00133171 3.90323e-09 1.46718e-07)
(0.00132877 -5.40948e-07 2.96944e-07)
(0.00132599 -2.24302e-07 3.89199e-07)
(0.00132381 -3.27931e-07 3.28913e-07)
(0.00132076 -1.67857e-07 3.23904e-07)
(0.00131853 -1.2603e-07 1.33394e-07)
(0.00131679 6.37255e-07 3.44592e-07)
(0.00131453 1.25118e-06 3.45986e-07)
(0.00131294 1.1587e-06 3.145e-07)
(0.00131063 8.52986e-07 8.00789e-07)
(0.00130687 8.29763e-07 4.73869e-07)
(0.00130402 2.5392e-07 3.33782e-07)
(0.00130214 2.12663e-07 3.02776e-07)
(0.00129974 1.90245e-07 3.60695e-07)
(0.00129735 2.61568e-08 3.43449e-07)
(0.00129508 -1.06619e-08 3.31706e-07)
(0.00129212 -1.70008e-07 2.91567e-07)
(0.00128926 8.02362e-08 3.57344e-07)
(0.00128705 1.39358e-08 3.59436e-07)
(0.00128518 4.41345e-07 5.60664e-07)
(0.00128352 3.59429e-07 2.90054e-07)
(0.00128121 3.18266e-07 3.08229e-07)
(0.00127876 3.79308e-07 3.14704e-07)
(0.00127608 5.46198e-07 3.86981e-07)
(0.00127311 3.20378e-07 3.43802e-07)
(0.00127087 1.53258e-07 3.17993e-07)
(0.00126934 1.34286e-07 3.60402e-07)
(-0.00078022 0.000905634 -0.000301093)
(0.0033893 0.000426919 -0.000204953)
(0.000594091 -0.00421901 8.18392e-05)
(-0.00508428 -0.00281493 -0.00538719)
(0.000983857 -0.00255031 -0.00205563)
(0.00676691 0.00180374 -0.00107618)
(-0.00223354 -5.69854e-05 -7.64853e-05)
(0.00147537 5.07748e-07 1.4794e-05)
(0.00144766 -5.79264e-05 3.07413e-07)
(0.0013485 -3.37124e-05 2.52284e-07)
(0.00136836 -2.05533e-05 3.43023e-07)
(0.00136228 -1.23344e-05 3.27828e-07)
(0.00136074 -7.83932e-06 3.40635e-07)
(0.00135805 -4.72534e-06 3.40474e-07)
(0.00135542 -2.80219e-06 3.39297e-07)
(0.00135265 -1.63024e-06 3.38274e-07)
(0.00134995 -1.39165e-06 3.35608e-07)
(0.0013472 -1.29688e-06 2.83904e-07)
(0.0013449 -1.16129e-06 3.33892e-07)
(0.00134227 -8.51802e-07 3.01387e-07)
(0.00133973 -7.13545e-07 3.39407e-07)
(0.00133727 -5.61213e-07 3.35217e-07)
(0.00133446 -8.15649e-07 2.75935e-07)
(0.00133159 -5.6171e-07 1.62337e-07)
(0.0013294 -5.59793e-07 7.79004e-07)
(0.00132708 -5.91487e-08 5.2311e-07)
(0.00132405 2.69594e-07 3.97861e-07)
(0.00132171 5.4616e-07 3.7168e-07)
(0.00131985 1.47263e-06 2.91833e-07)
(0.00131741 1.26799e-06 5.02737e-07)
(0.00131423 1.34244e-06 3.13213e-07)
(0.00131129 1.3096e-06 2.82387e-07)
(0.001309 3.84262e-07 3.24846e-07)
(0.00130685 -8.52214e-08 3.27353e-07)
(0.00130446 2.22333e-07 2.4176e-07)
(0.00130216 1.63929e-07 3.11938e-07)
(0.00129966 3.32741e-08 3.19967e-07)
(0.0012974 -5.193e-08 2.75799e-07)
(0.00129473 -5.35924e-07 2.28388e-07)
(0.0012922 -5.18876e-07 1.3666e-07)
(0.00128992 1.33813e-08 3.30765e-07)
(0.00128768 4.03687e-07 3.58166e-07)
(0.0012853 9.10183e-07 4.52936e-07)
(0.00128312 9.37738e-07 3.2163e-08)
(0.00128096 1.82802e-07 3.20383e-07)
(0.00127862 5.75316e-08 3.19382e-07)
(0.00127599 -1.37118e-07 3.92456e-07)
(0.00127322 8.52755e-08 2.21545e-07)
(0.00127083 4.12277e-07 3.16375e-07)
(0.00126898 3.86131e-07 2.3182e-07)
(0.00145702 -0.00415792 0.000345456)
(-0.00194882 -0.0070255 0.00116134)
(-0.00986323 -0.00454519 -0.00466651)
(0.0136605 -0.00571136 -0.000578159)
(0.0084275 -0.00418274 0.000620472)
(0.00120937 0.00689894 -0.0015226)
(0.000346787 0.000110663 3.72581e-05)
(0.00103428 0.000347465 3.3104e-05)
(0.00148356 -4.90575e-05 7.19206e-07)
(0.00138193 -2.58049e-05 4.1811e-07)
(0.00138389 -1.63671e-05 3.66912e-07)
(0.00137126 -1.01688e-05 6.541e-07)
(0.00136595 -5.94684e-06 3.60795e-07)
(0.00136174 -3.83298e-06 3.4126e-07)
(0.00135757 -2.50331e-06 3.43411e-07)
(0.00135388 -1.54623e-06 3.57864e-07)
(0.00135066 -8.57913e-07 3.38413e-07)
(0.00134773 -5.72811e-07 3.37198e-07)
(0.00134473 -8.0088e-08 5.30505e-07)
(0.00134234 8.85421e-09 3.15893e-07)
(0.00133985 -8.12258e-09 3.69959e-07)
(0.00133701 1.12255e-07 6.03555e-07)
(0.00133462 7.32045e-08 3.17719e-07)
(0.00133203 9.61555e-08 3.11739e-07)
(0.0013294 3.81177e-07 3.0131e-07)
(0.00132702 -4.94251e-08 3.66886e-07)
(0.00132457 2.17361e-07 3.84442e-07)
(0.00132225 3.43998e-07 2.97785e-07)
(0.00131942 4.08495e-07 2.71137e-07)
(0.00131661 2.04766e-07 3.87328e-07)
(0.00131457 8.83677e-08 3.41206e-07)
(0.00131173 -2.33352e-07 3.19832e-07)
(0.00130888 2.75903e-07 3.75416e-07)
(0.00130667 1.64796e-07 3.27526e-07)
(0.00130433 2.71903e-07 3.26006e-07)
(0.0013019 2.90809e-08 3.21548e-07)
(0.00129947 -1.10087e-07 3.13277e-07)
(0.00129664 -1.84888e-07 2.88816e-07)
(0.0012945 -2.06415e-07 4.34539e-07)
(0.00129281 -3.2798e-08 3.04462e-07)
(0.00129041 8.78511e-08 3.48187e-07)
(0.00128817 2.35175e-07 6.41126e-07)
(0.00128584 1.3233e-07 2.53939e-07)
(0.0012826 2.3602e-07 -1.1204e-07)
(0.00128011 -1.97162e-07 3.14753e-07)
(0.00127836 -3.85359e-07 3.18348e-07)
(0.00127611 -8.63196e-07 1.13994e-07)
(0.00127379 -7.37117e-07 3.10733e-08)
(0.00127123 -3.86939e-07 4.90385e-07)
(0.00126835 1.77613e-07 4.28158e-07)
(-0.0028654 0.000963709 -0.000626079)
(-0.00594707 -0.00212352 0.00393656)
(-0.0101 -0.0139359 0.00257801)
(0.0334089 -0.122995 -0.0127643)
(-0.00957606 0.00431862 -0.00218461)
(-0.0190567 0.00512658 0.00387176)
(0.00230853 0.00152556 1.98082e-06)
(0.00137947 3.32985e-05 7.68656e-05)
(0.00147551 5.06603e-07 6.23876e-07)
(0.00138804 -4.35108e-06 3.60236e-07)
(0.001388 -3.69284e-06 3.06361e-07)
(0.00137536 -2.85421e-06 3.69682e-07)
(0.0013687 -1.59633e-06 2.66612e-07)
(0.00136237 -1.16928e-06 3.41711e-07)
(0.00135829 -7.45268e-07 6.04846e-07)
(0.00135471 -6.24472e-07 4.32773e-07)
(0.00135117 -3.48185e-07 3.39357e-07)
(0.00134818 1.00362e-08 3.77863e-07)
(0.00134563 -2.8689e-08 3.38292e-07)
(0.00134236 5.54207e-07 6.54375e-07)
(0.00133986 5.16822e-07 2.56003e-07)
(0.00133737 4.46649e-07 3.7717e-07)
(0.00133444 4.87279e-07 3.31201e-07)