/*--------------------------------*- C++ -*----------------------------------*\
| =========                 |                                                 |
| \\      /  F ield         | OpenFOAM: The Open Source CFD Toolbox           |
|  \\    /   O peration     | Version:  5.0                                   |
|   \\  /    A nd           | Web:      www.OpenFOAM.org                      |
|    \\/     M anipulation  |                                                 |
\*---------------------------------------------------------------------------*/
FoamFile
{
    version     2.0;
    format      ascii;
    class       surfaceVectorField;
    location    "4";
    object      Uf;
}
// * * * * * * * * * * * * * * * * * * * * * * * * * * * * * * * * * * * * * //

dimensions      [0 1 -1 0 0 0 0];

internalField   nonuniform List<vector> 
26755
(
(0.0207441 0.0165512 -0.00247739)
(0.0208192 0.0284817 -0.00472831)
(0.0500074 0.00280324 -0.00626073)
(0.0195899 0.0322055 0.00182831)
(0.0348514 0.0425856 -0.000148206)
(0.00918954 -0.0131911 0.0228946)
(0.0208289 0.00609982 0.0620521)
(0.0275744 0.00998134 -0.0554445)
(0.0268626 -0.0134805 -0.0493293)
(0.000445741 -0.000767938 0.000722973)
(0.0044832 -0.00952661 -0.000762308)
(0.0115097 -0.00452405 -0.000685808)
(-0.0316228 -0.00335137 -0.00153039)
(-0.00879026 -0.00452338 0.000427649)
(-0.0122996 0.000238792 6.70612e-05)
(-0.00544321 -0.00577505 0.000985303)
(0.00201678 0.00817272 0.000243738)
(-0.00355614 -0.00693543 -2.42581e-05)
(-0.00282875 0.00241088 8.05486e-06)
(-0.00190587 -0.00245521 -0.000114435)
(-0.00202864 -0.00987772 -0.000215941)
(-0.0124557 0.00978919 -0.000209067)
(-0.0050301 0.00683034 -0.000659176)
(-0.00553047 0.0112772 -0.000389883)
(-0.0150539 0.0122696 -0.0012014)
(0.00650184 0.00614137 -7.73248e-05)
(-0.000599815 0.00261403 0.00012461)
(-0.00147636 0.0010311 4.40127e-05)
(0.00352301 0.00424357 0.000670272)
(0.00155118 0.000121083 2.08227e-05)
(0.000558697 -4.03326e-05 3.97205e-05)
(0.000681199 -2.0583e-05 8.22364e-05)
(0.000603725 -6.10755e-06 2.96611e-05)
(0.000845387 -1.44258e-05 -1.03543e-06)
(0.000597984 -1.28489e-05 -1.39818e-06)
(0.0011672 -3.81603e-05 -1.45473e-06)
(0.000611949 -1.84832e-06 -3.95724e-06)
(0.000622387 -2.2191e-05 -4.28163e-06)
(0.00102255 1.72248e-05 -1.92659e-06)
(0.00103869 -3.26701e-05 -6.91486e-07)
(0.000578147 -2.84791e-05 -4.0656e-06)
(0.000995376 -2.28296e-05 -9.82861e-07)
(0.000952412 -4.59596e-05 -4.90679e-06)
(0.000823277 -1.95266e-06 -1.12598e-07)
(0.000849093 1.07203e-05 -6.75833e-07)
(0.00110227 6.32345e-06 1.08026e-07)
(0.000817738 -5.35827e-06 6.55208e-08)
(0.00081327 -5.00958e-06 -1.83329e-07)
(0.00109229 -7.3962e-06 1.82502e-07)
(0.000812902 -3.48307e-06 7.00256e-08)
(0.000815964 -2.77889e-06 1.31371e-07)
(0.00108655 -4.16003e-06 1.76798e-07)
(0.000810381 -2.48029e-06 2.36789e-08)
(0.000811694 -2.40231e-06 4.41346e-08)
(0.00108188 -3.42481e-06 1.75748e-07)
(0.000808735 -1.35392e-06 3.66691e-08)
(0.00080988 -1.8728e-06 2.68217e-08)
(0.00107977 -2.15249e-06 1.86375e-07)
(0.000806161 -6.92243e-07 6.38968e-08)
(0.000807606 -1.79551e-06 5.84409e-08)
(0.0010771 -8.54157e-07 1.59471e-07)
(0.000804292 -4.6223e-07 1.67708e-07)
(0.00080547 -6.99077e-07 5.05908e-08)
(0.00107415 -6.39126e-07 1.85985e-07)
(0.000802871 -3.43222e-07 1.66326e-07)
(0.0008037 -4.73688e-07 1.59151e-07)
(0.00107207 -3.6424e-07 1.81951e-07)
(0.000801172 -2.71689e-07 1.55604e-08)
(0.000802006 -1.04034e-07 -4.14331e-09)
(0.00107001 -4.10818e-07 1.77777e-07)
(0.000799524 -1.71187e-07 2.39586e-08)
(0.000800465 -1.83863e-07 2.65009e-08)
(0.00106781 -2.24241e-07 1.42271e-07)
(0.000798084 -1.49699e-07 8.54719e-08)
(0.000798884 -3.98906e-07 5.56149e-08)
(0.00106573 -1.72841e-07 1.86722e-07)
(0.000796601 -1.18439e-07 8.45108e-08)
(0.00079734 -3.5944e-08 6.24596e-08)
(0.0010638 -1.91491e-07 1.46731e-07)
(0.000794997 -7.96814e-09 7.07063e-08)
(0.000795821 -1.58749e-08 7.74206e-08)
(0.00106181 -9.06301e-08 2.12864e-07)
(0.00079345 6.76052e-08 4.56284e-08)
(0.000794245 -4.27963e-07 6.22983e-08)
(0.00105965 1.28763e-07 1.91806e-07)
(0.000791945 6.93025e-08 3.05851e-08)
(0.000792683 4.5335e-07 3.19981e-08)
(0.0010576 1.24828e-07 1.33532e-07)
(0.0007904 1.37714e-07 5.18663e-08)
(0.000791248 -1.01533e-08 3.15509e-08)
(0.0010556 1.19198e-07 1.7894e-07)
(0.000789156 2.42217e-07 6.19166e-08)
(0.000789836 -1.81692e-07 5.80468e-08)
(0.00105377 3.2306e-07 1.79463e-07)
(0.000787457 1.82131e-07 6.10441e-08)
(0.000788158 -9.2736e-07 8.749e-08)
(0.00105175 4.22061e-07 1.65153e-07)
(0.00078609 8.46389e-08 5.33262e-08)
(0.000786675 8.23431e-08 6.02599e-08)
(0.0010497 1.56824e-07 1.76221e-07)
(0.000784579 1.43401e-07 1.00342e-07)
(0.000785432 2.27178e-08 4.76987e-08)
(0.00104801 1.16082e-07 1.76276e-07)
(0.000783048 1.36836e-08 9.80509e-08)
(0.000783712 -1.50313e-07 1.08966e-07)
(0.00104578 2.56173e-07 1.19274e-07)
(0.000781678 -3.24337e-07 6.07697e-08)
(0.00078204 1.28256e-07 1.10358e-09)
(0.00104372 -2.68827e-07 1.8749e-07)
(0.00077978 -5.07669e-07 2.2292e-08)
(0.000780629 -7.78963e-07 -2.62002e-08)
(0.00104171 -6.95375e-07 3.66536e-07)
(0.000778472 -4.93993e-07 2.32916e-08)
(0.000779126 -7.31587e-07 -1.19375e-08)
(0.00103943 -7.42079e-07 3.19236e-07)
(0.000776898 -3.33399e-07 7.11358e-08)
(0.000777799 -2.60418e-07 9.82094e-08)
(0.00103758 -5.99562e-07 1.82047e-07)
(0.000775777 -1.02753e-07 5.12144e-08)
(0.000776622 -1.37635e-07 8.42851e-08)
(0.00103595 -2.92211e-07 1.59119e-07)
(0.000774162 8.01244e-08 7.54787e-08)
(0.000775165 2.16763e-08 4.15523e-08)
(0.0010341 2.95002e-08 1.73314e-07)
(0.000772606 1.02944e-07 7.37356e-08)
(0.00077343 1.62945e-07 7.12765e-08)
(0.00103193 2.11965e-07 1.70833e-07)
(0.000770851 1.12886e-07 2.87858e-08)
(0.000771868 3.32902e-07 3.92093e-08)
(0.0010297 9.09382e-08 1.757e-07)
(0.00076933 3.2312e-07 5.00155e-08)
(0.000770442 3.88782e-07 1.4981e-08)
(0.00102741 2.31717e-07 1.40383e-07)
(0.000768863 2.92512e-07 6.46927e-08)
(0.000769009 -2.11414e-06 6.76899e-08)
(0.00102616 6.58874e-07 2.06372e-07)
(0.000766985 2.46683e-08 3.88443e-08)
(0.000767546 2.54678e-07 7.90894e-08)
(0.00102472 1.91459e-07 1.78725e-07)
(0.000765499 -6.4152e-08 5.0117e-08)
(0.000766066 -1.85675e-08 4.299e-08)
(0.0010224 -4.8345e-08 1.71711e-07)
(0.000764208 -2.12669e-07 6.38858e-08)
(0.000764618 -1.40604e-07 6.86658e-08)
(0.00102042 -8.25205e-08 1.63772e-07)
(0.000763138 -4.20907e-07 2.35628e-08)
(0.000763319 -5.63931e-07 1.59523e-08)
(0.00101913 -4.72496e-07 2.62873e-07)
(0.000760778 -3.64483e-07 1.30365e-08)
(0.000761945 2.82224e-06 3.0061e-08)
(0.00101674 -6.18486e-07 6.79304e-08)
(0.000759389 -1.35535e-07 2.58042e-08)
(0.000760445 1.21547e-07 4.37107e-08)
(0.00101415 -3.18088e-07 1.58633e-07)
(0.000758109 4.20182e-09 3.33451e-08)
(0.000758977 2.89645e-07 4.48282e-08)
(0.00101245 -7.97846e-08 1.40479e-07)
(0.000757243 -3.47687e-08 5.39391e-08)
(0.000757652 -5.84556e-07 4.8908e-08)
(0.00101093 2.46739e-08 1.60534e-07)
(0.000755679 -2.44246e-07 5.20356e-08)
(0.000756344 1.44978e-07 1.57062e-08)
(0.00100949 -1.85006e-07 1.74729e-07)
(0.000753985 -3.52023e-07 2.68182e-08)
(0.000754783 -3.03653e-07 -1.43822e-08)
(0.00100716 -4.97457e-07 2.07656e-07)
(0.000753485 8.82637e-07 5.90284e-08)
(0.001005 -4.25364e-07 1.0893e-07)
(0.0170258 0.0229842 0.000167333)
(0.00306793 0.0121473 0.000275936)
(0.0108498 0.00765553 0.000165942)
(0.0127122 0.0107574 0.000805751)
(-0.00456285 -0.00763835 -0.000107164)
(-0.003939 0.00503436 -0.000317717)
(-0.0101038 -0.0144369 -0.000477256)
(-0.0166223 -0.000264829 -0.00211106)
(-0.0113868 0.0316565 -0.000571105)
(0.0056502 0.00106889 2.5025e-05)
(0.00568917 -0.000646557 0.000114719)
(0.00191912 -0.0040174 -6.12467e-05)
(-0.0121857 0.00555676 -0.000221702)
(0.00141485 0.000415876 -0.000219006)
(-0.00983132 -0.0026943 -0.00108914)
(0.00327232 0.00038723 -0.00131606)
(0.0171532 -0.00127549 -0.00120892)
(0.00204138 0.00767425 0.000248698)
(-0.00563916 -0.00616819 -0.00400304)
(0.00114103 0.00307803 0.00024067)
(0.00307203 0.00180138 0.000375654)
(0.00428439 3.33659e-05 0.000255031)
(1.3741e-05 0.00199423 4.84669e-05)
(0.00152782 -0.0062026 6.43013e-05)
(-0.00304848 -0.000213494 0.00145884)
(0.00894902 -0.00192997 0.000417504)
(0.00016552 -0.00267856 2.58166e-05)
(0.000490342 -0.00216375 0.000122564)
(-0.00145705 -0.00307097 0.000159792)
(-0.00354314 -0.00414959 -0.000101403)
(-0.00214055 0.0027999 0.000452604)
(-0.00740307 8.34351e-05 0.000248785)
(-0.000828994 -0.00466477 0.000388592)
(-0.00592473 -0.000352249 0.0013816)
(-0.00271567 -0.00278635 1.25756e-05)
(-0.002537 -0.00772265 2.81316e-05)
(0.00461996 -0.00626934 0.000108447)
(0.00195094 -0.0163889 -0.000680521)
(0.00264205 -0.0137562 0.000313764)
(0.000501798 8.28069e-05 6.46044e-05)
(0.000696798 0.000113531 4.96406e-06)
(0.00104585 5.37767e-05 -7.72902e-06)
(0.000874715 0.000108248 -3.39461e-05)
(0.000952284 1.04273e-05 1.08659e-05)
(0.000317953 -1.24717e-05 -2.14138e-06)
(0.000478781 -1.46282e-05 -3.33626e-06)
(0.000462672 -2.33253e-05 -3.35631e-07)
(0.000755198 -1.9716e-05 -1.32574e-06)
(0.000325759 -1.20803e-05 -2.3153e-06)
(0.000577326 -2.48668e-05 -3.15094e-06)
(0.000596764 -2.51019e-05 -2.98613e-06)
(0.000816468 -6.08491e-07 -7.46724e-07)
(0.000869657 -5.68395e-06 -1.756e-06)
(0.00115572 4.73977e-06 -1.0174e-06)
(0.000591423 -1.02597e-05 -3.82663e-06)
(0.000603534 -6.61757e-06 -4.66027e-06)
(0.000970483 -2.49777e-05 -4.66801e-06)
(0.000997201 -1.81255e-05 -5.93296e-06)
(0.000815455 -3.66011e-06 -1.17581e-07)
(0.000809397 -4.30751e-06 -3.98724e-07)
(0.00107322 -6.1322e-06 7.92905e-08)
(0.000813319 -2.25263e-06 1.05509e-07)
(0.000817733 -2.48767e-06 1.49293e-07)
(0.00108785 -3.25999e-06 2.0512e-07)
(0.000811073 -1.58675e-06 4.7283e-08)
(0.000812532 -1.57291e-06 6.93305e-08)
(0.00108226 -2.44759e-06 1.77824e-07)
(0.000808863 -1.14579e-06 4.85833e-08)
(0.000810436 -1.06658e-06 5.23553e-08)
(0.00108022 -1.5627e-06 1.76858e-07)
(0.000806575 -8.53731e-07 4.51375e-08)
(0.000807975 -8.84249e-07 4.5798e-08)
(0.00107728 -1.33316e-06 1.76774e-07)
(0.000804892 -5.35172e-07 4.19978e-08)
(0.000805871 -5.59638e-07 4.93625e-08)
(0.00107483 -8.34152e-07 1.78142e-07)
(0.000802741 -2.66241e-07 -1.12661e-08)
(0.000804038 2.2611e-07 4.67531e-08)
(0.00107232 -5.47533e-07 1.80343e-07)
(0.000801291 -9.31201e-09 6.78732e-09)
(0.000802328 -4.60255e-07 -9.08947e-09)
(0.00106994 -1.46256e-07 1.93146e-07)
(0.00079979 1.69902e-07 5.81478e-08)
(0.000800689 -2.27195e-07 6.1495e-08)
(0.00106811 1.30859e-07 1.76382e-07)
(0.000798155 1.52031e-07 3.26005e-08)
(0.000798861 -2.37612e-07 7.23564e-08)
(0.00106598 3.19587e-07 1.74379e-07)
(0.000796559 4.59963e-08 5.53646e-08)
(0.000797207 5.16144e-08 3.28034e-08)
(0.00106381 9.19938e-08 1.76372e-07)
(0.000795042 3.18208e-08 6.90174e-08)
(0.000795803 6.92599e-09 5.97113e-08)
(0.00106179 7.45011e-08 1.74378e-07)
(0.00079349 1.09308e-07 4.86776e-08)
(0.000794341 -1.2129e-07 4.81688e-08)
(0.00105973 6.16571e-08 1.57995e-07)
(0.000791969 2.12668e-07 3.2964e-08)
(0.000792811 8.25195e-08 7.53554e-08)
(0.0010576 2.91989e-07 2.02636e-07)
(0.000790639 2.57636e-07 3.77229e-08)
(0.000791303 -5.79392e-07 2.12709e-08)
(0.00105583 3.55138e-07 2.00062e-07)
(0.000788991 1.67342e-07 8.36108e-08)
(0.000789721 -1.07037e-07 6.17476e-08)
(0.00105389 4.03244e-07 1.8302e-07)
(0.000787135 8.42595e-08 8.67144e-08)
(0.000788053 1.68905e-07 7.19968e-08)
(0.0010514 1.03011e-07 1.2977e-07)
(0.000786165 -4.37005e-09 5.46363e-08)
(0.000786564 -6.6796e-07 5.84193e-08)
(0.0010495 1.55244e-07 1.81662e-07)
(0.000784597 -2.85781e-07 5.63039e-08)
(0.000785082 1.99612e-07 5.05286e-08)
(0.0010479 -1.71711e-07 1.69136e-07)
(0.000782609 -4.22792e-07 1.20531e-08)
(0.000783543 -6.33205e-07 3.28727e-08)
(0.0010455 -6.82282e-07 2.52633e-07)
(0.000781094 -3.62743e-07 -8.58577e-08)
(0.000782118 5.31976e-07 -6.654e-08)
(0.00104303 -5.60598e-07 1.48309e-07)
(0.000779861 -2.69229e-07 -6.04342e-08)
(0.000780748 2.21604e-07 5.28921e-08)
(0.00104136 -4.63237e-07 8.11961e-08)
(0.00077847 2.75648e-08 6.29458e-08)
(0.000779497 3.82431e-07 3.07006e-08)
(0.00103966 -2.87401e-07 8.70538e-08)
(0.000777487 2.55641e-07 1.11363e-07)
(0.000778083 -2.20266e-06 5.92457e-08)
(0.00103798 3.84242e-07 2.67576e-07)
(0.00077611 1.27593e-07 7.46364e-08)
(0.000776461 -1.5454e-06 6.28184e-08)
(0.00103654 3.79565e-07 2.6484e-07)
(0.000774438 -4.86679e-08 3.73409e-08)
(0.000774944 4.57208e-07 3.43644e-08)
(0.0010345 3.25425e-08 1.59915e-07)
(0.000772612 -1.12694e-08 3.67601e-08)
(0.000773477 6.73088e-07 4.31652e-08)
(0.00103203 -1.15722e-07 1.68194e-07)
(0.000771482 1.92007e-07 2.5412e-08)
(0.000772121 -1.31934e-07 5.19993e-08)
(0.00103007 1.22576e-07 1.75872e-07)
(0.000770093 4.45142e-07 3.26391e-08)
(0.000770757 2.13336e-08 2.83585e-08)
(0.00102856 4.15199e-07 1.92144e-07)
(0.000767755 4.33832e-07 8.2083e-08)
(0.000768993 -6.78245e-07 4.1857e-08)
(0.00102599 7.8709e-07 1.47867e-07)
(0.000766561 1.67905e-07 8.32463e-08)
(0.000767212 2.27182e-07 6.9337e-08)
(0.00102354 4.19706e-07 1.5033e-07)
(0.000765189 -2.90401e-08 6.1531e-08)
(0.000765819 -9.79743e-08 6.25464e-08)
(0.00102192 8.1682e-08 1.70328e-07)
(0.00076374 -2.32582e-07 2.07485e-08)
(0.000764364 -9.24465e-08 6.52242e-08)
(0.00102001 -1.48234e-07 1.6818e-07)
(0.000762118 -4.77929e-07 2.24462e-08)
(0.000763014 1.88094e-08 3.5897e-08)
(0.00101788 -4.50751e-07 1.45402e-07)
(0.000761623 -3.63732e-07 6.0731e-08)
(0.00076209 3.01655e-07 7.73085e-08)
(0.00101665 -8.00076e-07 2.68413e-07)
(0.000760043 -4.99897e-08 6.27344e-08)
(0.000760838 1.26617e-07 -2.94445e-09)
(0.00101522 -1.87873e-07 1.83942e-07)
(0.000758406 1.8634e-07 6.03898e-08)
(0.000759273 6.99922e-08 9.62067e-08)
(0.00101302 -1.18527e-08 2.05937e-07)
(0.000756878 2.11269e-07 1.06852e-08)
(0.000757683 -1.10651e-06 7.14962e-08)
(0.00101098 4.34684e-07 2.18421e-07)
(0.000755402 -6.76077e-09 -5.07025e-08)
(0.000756071 2.81224e-07 2.31088e-08)
(0.00100894 7.95988e-08 1.66067e-07)
(0.000754196 -1.29798e-07 1.78057e-08)
(0.000754632 1.07927e-07 -1.58397e-08)
(0.00100708 -1.53258e-07 1.21646e-07)
(0.000753645 -1.21478e-07 1.04449e-07)
(0.00100572 -2.39557e-07 2.28433e-07)
(0.00326239 -0.00567907 0.000402286)
(0.00319361 -0.00302526 0.000437061)
(0.00644646 -0.012662 0.000506719)
(0.00608407 0.00152838 0.000482028)
(9.51034e-05 0.00449348 0.000677965)
(0.00768582 0.0135498 -0.000148655)
(0.0148975 0.0108013 0.000449814)
(0.00231567 -0.00453877 1.86939e-05)
(0.00252005 -0.00404316 -1.23412e-05)
(0.00512773 -0.00689566 0.000557947)
(-0.00457433 0.00550678 -0.000337717)
(-0.000111597 0.00297308 0.000184672)
(0.00998176 0.00367967 0.000437473)
(-0.0011833 0.000289982 0.000176646)
(0.00340715 -0.00211689 0.000344679)
(0.00132043 -0.0056532 0.000138599)
(0.00618692 -0.00106483 6.41934e-05)
(0.000656173 0.000518901 0.000116972)
(0.000567649 -0.00437564 0.000255988)
(0.00336583 -0.00233653 0.000302046)
(-0.00173701 -0.000757683 -0.000709455)
(0.00234458 -0.00476779 0.000251277)
(0.00560663 -0.000471647 0.00204437)
(0.000475663 0.00500303 0.000814371)
(0.00040205 -0.00196758 -0.00125783)
(-0.000736732 -0.00587021 0.000774046)
(0.00587469 -0.00605287 -0.000425296)
(0.00493908 0.0115668 0.00206422)
(0.00844619 -0.00562101 -0.00111234)
(-0.000260096 -0.00908543 -0.000611575)
(0.00676578 -0.00058616 -0.000669233)
(-0.00141302 0.00979979 -0.00023505)
(6.38865e-05 -0.000226313 -0.00198427)
(-0.0022964 0.00504814 -0.000176776)
(0.00103571 0.00527894 -1.02607e-05)
(6.23237e-05 0.00414334 1.63145e-05)
(0.000271396 0.00564718 0.000369527)
(-0.000542134 0.0105817 4.15386e-05)
(0.00093878 -0.000555961 4.80885e-05)
(0.00120198 0.000115688 0.000123146)
(0.00106931 -0.000451643 4.22658e-05)
(0.00146367 -0.00016043 3.66006e-05)
(0.000959203 -3.0662e-05 5.56453e-05)
(0.000352557 -2.5754e-05 -4.22488e-09)
(0.000512349 1.98158e-06 -3.52482e-06)
(0.000796065 -1.36703e-05 -8.33666e-07)
(0.000367806 -2.03156e-05 1.08537e-06)
(0.00066204 -6.51558e-05 5.27724e-06)
(0.000699864 -2.93814e-05 6.46781e-06)
(0.000474615 -2.40041e-05 -6.03014e-07)
(0.000342737 3.9177e-06 6.35707e-07)
(0.000613949 1.79588e-06 7.3971e-06)
(0.000555087 -7.82657e-06 -1.91152e-06)
(0.000308996 -2.19357e-06 -2.00713e-06)
(0.000823324 -3.14028e-06 -1.40845e-06)
(0.000871046 1.28989e-06 -1.91272e-06)
(0.00115785 -6.94706e-06 -1.28873e-06)
(0.000613382 5.64655e-06 -4.13424e-06)
(0.000603859 1.17528e-05 -4.77295e-06)
(0.00101914 1.11691e-05 -5.06705e-06)
(0.00101575 2.39296e-05 -5.63839e-06)
(0.000819182 -1.8625e-06 -1.32029e-07)
(0.000811195 3.35224e-07 -3.79917e-07)
(0.00108212 -4.33039e-06 7.87417e-08)
(0.000815051 -1.09057e-06 1.13141e-07)
(0.000818717 4.50227e-07 1.49876e-07)
(0.00109118 -2.45471e-06 1.95339e-07)
(0.000811971 -7.43022e-07 7.44082e-08)
(0.000812979 3.79892e-07 6.48814e-08)
(0.00108402 -1.56161e-06 1.72604e-07)
(0.000809398 -5.69395e-07 4.95722e-08)
(0.000810661 1.43623e-07 5.48289e-08)
(0.00108117 -1.08686e-06 1.80468e-07)
(0.000807065 -4.14441e-07 5.00219e-08)
(0.000808173 5.29983e-08 4.94447e-08)
(0.00107801 -8.26348e-07 1.78949e-07)
(0.00080498 -3.33047e-07 5.41186e-08)
(0.000805976 6.53613e-08 4.97256e-08)
(0.00107514 -5.18581e-07 1.79398e-07)
(0.000803538 -2.80514e-07 4.89478e-08)
(0.000804106 1.17566e-08 5.24322e-08)
(0.00107293 -5.16931e-07 1.82379e-07)
(0.000801736 -2.26897e-07 4.55955e-08)
(0.000802397 -1.55758e-07 4.25813e-08)
(0.00107086 -3.17131e-07 1.78062e-07)
(0.000799818 -3.01644e-07 7.57e-08)
(0.000800597 3.05838e-07 4.2567e-08)
(0.00106839 -3.44193e-07 1.72706e-07)
(0.000797766 -2.72034e-07 7.2572e-08)
(0.0007989 4.92642e-07 7.72761e-08)
(0.00106569 -5.09949e-07 1.71e-07)
(0.000796423 -1.69782e-07 3.71414e-08)
(0.000797336 -2.04919e-07 3.70542e-08)
(0.00106349 -2.63313e-07 1.78325e-07)
(0.000795149 -1.26563e-07 3.88663e-08)
(0.000795858 -2.41791e-07 4.59322e-08)
(0.00106177 -2.36683e-07 1.72126e-07)
(0.000793655 -9.39557e-08 7.48378e-08)
(0.000794383 -1.33548e-07 4.81294e-08)
(0.00105992 -1.36197e-07 1.75099e-07)
(0.000792156 -5.85006e-08 6.36795e-08)
(0.000792856 2.72848e-07 6.6749e-08)
(0.00105796 -1.20162e-07 1.61618e-07)
(0.000790376 -9.72847e-08 4.52827e-08)
(0.000791255 7.13199e-09 4.67986e-08)
(0.00105573 -1.37318e-08 1.58644e-07)
(0.0007888 -1.17507e-07 5.01304e-08)
(0.000789696 -3.63689e-07 2.9975e-08)
(0.00105345 -2.57084e-07 1.99889e-07)
(0.000787393 4.222e-09 4.3706e-08)
(0.000788206 1.18726e-07 3.29768e-08)
(0.00105144 -9.03039e-08 1.70796e-07)
(0.00078555 3.72799e-08 5.43141e-08)
(0.000786605 -1.37343e-07 5.51853e-08)
(0.00104936 8.20672e-08 1.68275e-07)
(0.000784065 -4.16609e-08 2.71029e-08)
(0.000784983 -2.51093e-08 5.6877e-08)
(0.00104696 1.2747e-08 1.9006e-07)
(0.000782926 1.30981e-07 -4.56891e-08)
(0.000783758 5.13356e-07 1.78833e-08)
(0.0010453 -9.5991e-08 6.29507e-08)
(0.000781878 4.15009e-07 7.21723e-08)
(0.000782471 7.7437e-07 -2.17512e-08)
(0.001044 4.96692e-07 1.18607e-07)
(0.000780266 5.02226e-07 1.44034e-07)
(0.000780854 4.06184e-07 1.48322e-07)
(0.00104206 7.0612e-07 1.72463e-07)
(0.000779238 4.9001e-07 2.69915e-08)
(0.000779479 5.74931e-07 3.04661e-08)
(0.00104049 7.30282e-07 1.20255e-07)
(0.000776984 3.6827e-07 1.06999e-08)
(0.000777929 5.26415e-08 2.08721e-08)
(0.00103841 6.19484e-07 8.23823e-08)
(0.000775329 1.29245e-07 2.25553e-08)
(0.000776161 1.47863e-07 3.39272e-08)
(0.0010355 3.96939e-07 6.88601e-08)
(0.000773929 -5.95625e-08 4.0186e-08)
(0.000774708 5.06698e-07 2.48612e-08)
(0.00103348 -1.59849e-08 1.63171e-07)
(0.000772971 -5.94439e-08 5.84017e-08)
(0.000773477 2.76418e-08 1.24319e-07)
(0.00103204 -1.16449e-07 1.73285e-07)
(0.000771435 -4.09154e-08 5.49531e-08)
(0.000772144 6.02083e-08 8.67501e-08)
(0.00103036 -9.05142e-09 1.65128e-07)
(0.000769836 -1.32801e-07 3.75722e-08)
(0.000770642 4.08022e-09 4.85023e-08)
(0.00102824 -6.9307e-08 1.859e-07)
(0.000768207 -8.04414e-08 2.91025e-08)
(0.000769059 -2.14823e-07 2.22165e-08)
(0.00102616 -2.52853e-07 1.54075e-07)
(0.000766513 3.9894e-08 4.86393e-08)
(0.000767362 7.83297e-07 3.4637e-08)
(0.00102384 4.0554e-08 1.5331e-07)
(0.000765042 -1.57144e-08 6.62388e-08)
(0.000765749 -5.37849e-08 6.08151e-08)
(0.00102169 4.88477e-08 1.70295e-07)
(0.000763549 1.42423e-07 8.03817e-08)
(0.000764561 -1.02308e-07 9.56658e-08)
(0.00101975 -6.83896e-08 1.76324e-07)
(0.000762828 4.43214e-07 9.07466e-08)
(0.000763388 -2.24747e-06 1.36761e-07)
(0.00101832 4.95629e-07 2.70064e-07)
(0.000761594 4.04829e-07 1.36576e-08)
(0.00076204 6.39563e-07 7.59745e-08)
(0.00101707 7.14098e-07 1.28222e-07)
(0.00076001 2.48957e-07 3.04976e-08)
(0.000760642 1.07093e-08 -1.23364e-08)
(0.00101514 4.1093e-07 1.93141e-07)
(0.000758573 2.56155e-07 1.07321e-07)
(0.00075928 -1.90601e-08 8.19974e-08)
(0.00101323 3.31816e-07 1.78215e-07)
(0.000756792 3.60396e-07 8.39346e-08)
(0.000757812 -3.16881e-08 8.29706e-08)
(0.00101105 4.04835e-07 1.25125e-07)
(0.000755331 3.35533e-07 5.79834e-08)
(0.000756039 3.99759e-07 5.80751e-08)
(0.00100875 5.60676e-07 1.65979e-07)
(0.000753865 1.91189e-07 7.07668e-08)
(0.000754449 1.65416e-07 4.46715e-08)
(0.00100677 3.08952e-07 1.71259e-07)
(0.000753406 -1.12369e-06 1.29938e-07)
(0.00100549 1.81772e-07 2.04132e-07)
(0.00243858 0.000466787 2.25834e-05)
(0.00454749 -0.00343441 -3.6528e-05)
(0.00122117 -0.000188929 -0.000106675)
(0.00172347 -0.00346808 0.000117873)
(0.000779236 0.000853528 0.000383568)
(0.00317629 0.00178939 -2.75207e-05)
(0.00593702 -0.0045657 -0.000204785)
(0.00051806 -0.0026725 0.000235236)
(0.00830296 -0.00236612 8.54474e-05)
(-0.00513662 -0.00838695 0.000294282)
(-0.00122419 -0.00202262 0.000733587)
(-0.00496611 -0.0133743 0.00186223)
(-0.000644457 -0.002999 0.000160692)
(0.00393687 -0.00667666 -6.53774e-05)
(-0.00064976 -0.00573718 0.000266628)
(0.00867049 0.000163594 -9.9814e-05)
(-0.00540195 -0.003131 -0.000450738)
(-0.0017074 -0.0048629 -0.00576295)
(0.00506305 0.00132426 0.000151111)
(0.00639897 -0.00137813 -0.000700099)
(0.00169794 0.00235958 0.000324077)
(0.001296 -0.0089989 -0.000238113)
(-0.00148216 -0.0132491 -0.000739021)
(-0.000659642 -0.0121204 -0.000747313)
(-0.000541336 -0.00278361 5.46809e-05)
(0.00881062 -0.0084421 -0.000196729)
(0.00472419 -0.00405892 0.000239796)
(0.00579156 -0.0183242 -0.000172057)
(-0.000505062 0.00148386 0.00895501)
(-0.000367042 -0.0075336 -9.42888e-05)
(0.00133518 0.00842376 -0.0021208)
(0.00670178 0.00492428 0.000410315)
(0.0129132 0.00263313 0.000240816)
(0.00967868 0.00738759 0.000100791)
(0.0127254 0.0036054 -0.000521788)
(-1.27661e-05 -0.00194794 5.52935e-05)
(0.000793126 0.00209873 0.000153987)
(-0.00111377 0.00179625 -7.92977e-05)
(-0.00172791 0.00337232 0.000143603)
(-0.000552151 0.00227634 -0.000197824)
(0.00170607 0.000249879 -0.000111547)
(0.00170473 -0.000391645 2.87257e-07)
(0.00197789 -0.000245532 -5.6873e-05)
(0.00225198 -0.00124109 -7.95262e-05)
(0.00151546 0.000229536 -3.95272e-05)
(0.00122404 0.000246153 -0.000260916)
(0.000935567 0.000532662 -8.86655e-05)
(0.0016618 -0.000963671 1.88474e-05)
(0.00158939 -0.000719093 6.00936e-05)
(0.00202978 -0.000722931 1.53303e-05)
(0.0013736 -0.000291495 8.04431e-06)
(0.00220443 4.51484e-05 7.40383e-05)
(0.00283671 0.000543008 5.77801e-05)
(0.00128876 -0.000249221 9.22483e-05)
(0.000473855 -4.9701e-05 2.87062e-05)
(0.000343922 -9.0526e-06 6.97161e-06)
(0.000399538 -7.02288e-06 2.0269e-05)
(0.000567742 9.35735e-06 1.69579e-05)
(0.000271653 1.20416e-05 3.09419e-06)
(0.00082105 -4.93416e-07 -8.84687e-07)
(0.000873234 -2.26112e-06 -1.66679e-06)
(0.0011621 -5.65972e-06 -1.12818e-06)
(0.000604504 -6.02127e-06 -4.27794e-06)
(0.000603081 2.84222e-06 -5.01534e-06)
(0.0010074 -1.75134e-05 -4.90747e-06)
(0.00100187 2.43967e-06 -4.64108e-06)
(0.000818285 9.97861e-07 -9.81853e-08)
(0.000813147 3.16819e-06 -3.75493e-07)
(0.00107942 -7.95482e-07 8.37866e-08)
(0.00081472 1.05649e-06 1.01644e-07)
(0.000818812 2.51469e-06 1.4096e-07)
(0.00109137 1.31485e-07 2.06732e-07)
(0.000811753 7.80303e-07 4.53053e-08)
(0.000812646 2.11423e-06 1.92436e-08)
(0.00108401 5.75366e-07 1.7799e-07)
(0.00080925 4.66122e-07 5.47032e-08)
(0.000810275 1.24113e-06 6.91773e-08)
(0.00108116 1.78683e-07 1.82218e-07)
(0.000807012 4.2029e-07 4.91483e-08)
(0.00080812 8.61018e-07 5.08796e-08)
(0.001078 2.42424e-07 1.79653e-07)
(0.00080494 3.86567e-07 4.80383e-08)
(0.000805936 6.89873e-07 1.73991e-08)
(0.00107523 3.61715e-07 1.78389e-07)
(0.000802995 1.64471e-07 4.60689e-08)
(0.000803829 4.8603e-07 3.32579e-08)
(0.00107258 3.39806e-07 1.78278e-07)
(0.000801239 -1.11015e-07 3.95529e-08)
(0.000802054 2.51725e-07 4.64993e-08)
(0.00107016 -1.00437e-07 1.66969e-07)
(0.000799642 -2.54337e-07 4.41319e-08)
(0.000800419 3.37648e-07 4.45488e-08)
(0.00106787 -3.07407e-07 1.79526e-07)
(0.000798442 -2.67367e-07 4.17712e-08)
(0.000798885 -1.33218e-07 6.43493e-08)
(0.00106609 -4.43678e-07 1.91193e-07)
(0.000796723 -1.8938e-07 4.58421e-08)
(0.000797435 -5.32007e-08 4.05966e-08)
(0.00106415 -3.35547e-07 1.8266e-07)
(0.000795139 -1.62116e-07 5.51947e-08)
(0.000795893 -2.34262e-07 6.43854e-08)
(0.00106195 -2.39211e-07 1.8119e-07)
(0.000793539 -1.73293e-07 4.00347e-08)
(0.00079437 -1.87165e-08 3.63455e-08)
(0.00105987 -2.54727e-07 1.75457e-07)
(0.00079199 -1.87725e-07 4.98745e-08)
(0.000792839 -8.87314e-08 4.38268e-08)
(0.00105776 -2.76312e-07 2.04439e-07)
(0.000790564 -1.86224e-07 3.14962e-08)
(0.000791258 7.8262e-08 4.08807e-08)
(0.00105566 -2.92719e-07 1.63652e-07)
(0.000789066 -9.79265e-08 1.28205e-08)
(0.000789808 -6.85858e-08 4.00117e-08)
(0.0010538 -2.60199e-07 1.54552e-07)
(0.000787492 4.695e-08 4.44491e-08)
(0.000788387 -1.71721e-07 3.93662e-08)
(0.00105183 -4.48969e-08 2.0229e-07)
(0.00078598 2.64783e-07 5.77477e-08)
(0.000786877 -5.92012e-08 6.24963e-08)
(0.00104962 1.66138e-07 1.70974e-07)
(0.000784586 5.88539e-07 4.76696e-08)
(0.000785386 5.47389e-07 4.8487e-08)
(0.00104768 5.6828e-07 1.26014e-07)
(0.000783421 7.13146e-07 4.18337e-08)
(0.00078391 8.47314e-07 1.36569e-07)
(0.00104611 1.08969e-06 1.22636e-07)
(0.000781428 5.39903e-07 5.43452e-08)
(0.00078225 1.3765e-07 2.81665e-08)
(0.00104403 9.35554e-07 2.63998e-07)
(0.000780006 4.84119e-07 3.47914e-08)
(0.000780781 4.0283e-07 5.80983e-08)
(0.00104164 6.34145e-07 1.68967e-07)
(0.000778349 2.93882e-07 2.43497e-08)
(0.000779239 -8.55469e-07 2.176e-08)
(0.00103955 8.01123e-07 2.90923e-07)
(0.000776947 2.37489e-08 4.40953e-08)
(0.00077759 -4.1825e-08 2.93184e-08)
(0.00103756 9.87925e-08 1.73515e-07)
(0.00077554 7.32414e-08 3.62359e-08)
(0.000776222 9.69287e-08 4.74456e-08)
(0.00103574 1.60464e-08 1.70899e-07)
(0.000774192 1.60216e-07 1.08964e-07)
(0.000774816 4.4926e-09 3.54441e-08)
(0.00103386 1.87487e-07 1.979e-07)
(0.000772713 8.78029e-08 1.52679e-07)
(0.000773386 9.18671e-08 1.2023e-07)
(0.00103204 2.32055e-07 1.69099e-07)
(0.0007714 -7.3765e-08 8.03111e-08)
(0.000771942 -7.51765e-08 7.74592e-08)
(0.00103013 -1.15094e-08 1.68615e-07)
(0.000769846 -2.06744e-07 3.31547e-08)
(0.000770477 2.16167e-07 5.45283e-08)
(0.00102826 -1.86481e-07 1.65449e-07)
(0.000768261 -3.16805e-07 2.77471e-08)
(0.000768923 -3.60326e-07 3.46621e-08)
(0.00102613 -3.86883e-07 1.93843e-07)
(0.000766549 -1.8851e-07 4.68047e-08)
(0.000767524 1.2696e-06 6.52678e-08)
(0.00102391 -4.92425e-07 1.59984e-07)
(0.000765097 1.41418e-07 9.02313e-08)
(0.000766162 -7.12164e-08 5.32534e-08)
(0.00102178 -1.68479e-08 1.7301e-07)
(0.000764551 3.54784e-07 1.52032e-07)
(0.000764827 6.83299e-07 1.51641e-07)
(0.00102056 4.14391e-07 3.34234e-08)
(0.000762572 3.67966e-07 1.22007e-07)
(0.000763403 3.34333e-08 1.14092e-07)
(0.00101886 5.80145e-07 5.49712e-08)
(0.000761081 1.94877e-07 5.00076e-08)
(0.000761822 3.77585e-08 7.48514e-08)
(0.00101654 4.74747e-07 2.19572e-07)
(0.0007599 5.94341e-08 3.91346e-08)
(0.000760471 6.45195e-08 4.16788e-08)
(0.00101474 1.0968e-07 1.44215e-07)
(0.000758579 4.59728e-08 5.76471e-08)
(0.000759263 8.07961e-09 4.50282e-08)
(0.00101301 7.56969e-08 1.59244e-07)
(0.000757122 1.62245e-07 5.71187e-08)
(0.000757957 9.84255e-07 4.22452e-08)
(0.00101126 2.90009e-08 9.98791e-08)
(0.000755048 2.28064e-07 4.47673e-08)
(0.00075612 1.28317e-06 1.98913e-08)
(0.00100881 3.46761e-07 1.66039e-07)
(0.000753846 2.12679e-07 1.03817e-07)
(0.000754427 -3.16763e-08 5.19221e-08)
(0.0010066 2.29187e-07 1.65796e-07)
(0.000753142 -1.3303e-06 1.04797e-07)
(0.0010051 3.40533e-07 1.92202e-07)
(0.00413321 -0.00205137 0.000344063)
(0.00543208 0.00195613 -0.000332217)
(0.00301061 -0.00440406 -0.000401024)
(-0.0039453 -0.00484681 0.000722258)
(-0.000960916 -0.000612568 0.000694004)
(-0.011496 0.0012725 0.00366239)
(0.00579233 -0.00124146 -0.000148791)
(0.00588367 0.0030835 -1.93964e-05)
(0.00525623 -0.00207045 -0.000878394)
(0.00332554 -0.00381281 -0.000547084)
(0.00392091 -0.00304975 0.00232669)
(0.00486409 -0.00406023 -0.00109558)
(-0.00652273 -0.011413 0.000515298)
(-0.0124637 -0.00254568 0.000858883)
(-0.00180629 0.000303242 0.00111724)
(-0.00183252 -0.00674578 -0.000345834)
(-0.0081333 -0.0116315 -9.61718e-05)
(-0.000202911 -0.0107095 8.05531e-06)
(-0.00832814 -0.00520047 8.0698e-06)
(-0.00916614 -0.0115157 -0.000767276)
(-0.00233491 -0.00326625 -0.00046334)
(-0.00560229 0.00650399 -0.000522301)
(-0.00669119 -0.00390514 -0.00108616)
(-0.00435464 0.00553645 -0.000109475)
(-0.0121678 0.00115882 0.000583229)
(-0.000981032 0.00523328 0.000115341)
(-0.0128014 -0.00209891 0.00348404)
(0.00213495 0.00424866 0.000293973)
(-0.00524718 0.000400955 0.000127484)
(0.00296427 0.00133219 0.000746139)
(0.00095431 -0.00219687 1.90866e-06)
(0.00262364 0.0023291 0.000261311)
(0.00316138 0.00146325 0.000232485)
(0.00376894 -0.000992441 0.000299793)
(0.00220615 0.000825682 0.000120893)
(0.00245791 0.000963869 3.39497e-05)
(-0.00149471 -0.000427361 -8.22481e-05)
(0.00146258 0.00110129 -4.30077e-05)
(0.000450734 0.000420101 -0.000267849)
(0.00186628 0.00291308 -0.000212206)
(0.000800264 -0.000408461 6.4226e-06)
(0.000725113 -1.4095e-05 -4.41912e-05)
(0.000923343 0.000194373 -1.11615e-05)
(0.000632108 -0.000155919 -4.27471e-05)
(-9.50668e-06 -0.000274225 7.69945e-06)
(0.000488454 -0.00234534 -2.83896e-05)
(0.000551113 -0.000296489 2.03422e-06)
(0.000250387 0.000284455 -2.23709e-05)
(0.000915362 0.000207687 1.48429e-05)
(0.00127376 0.000620994 -9.61483e-06)
(0.000750766 -2.47753e-05 -1.50156e-06)
(0.00114068 0.000512125 4.41713e-05)
(0.000450401 -0.000107723 3.87653e-05)