/*--------------------------------*- C++ -*----------------------------------*\
| =========                 |                                                 |
| \\      /  F ield         | OpenFOAM: The Open Source CFD Toolbox           |
|  \\    /   O peration     | Version:  5.0                                   |
|   \\  /    A nd           | Web:      www.OpenFOAM.org                      |
|    \\/     M anipulation  |                                                 |
\*---------------------------------------------------------------------------*/
FoamFile
{
    version     2.0;
    format      ascii;
    class       surfaceVectorField;
    location    "4";
    object      Uf_0;
}
// * * * * * * * * * * * * * * * * * * * * * * * * * * * * * * * * * * * * * //

dimensions      [0 1 -1 0 0 0 0];

internalField   nonuniform List<vector> 
26755
(
(0.0251176 0.0215644 -0.00226148)
(0.0291196 0.0285291 -0.0053132)
(0.057319 0.00211276 -0.00877086)
(0.028931 0.0314448 0.00492328)
(0.0407424 0.0462296 0.00174246)
(0.00261453 -0.0191642 0.044526)
(0.0091662 0.00987386 0.0703579)
(0.0535489 0.0354838 -0.0772876)
(0.0441601 -0.0206385 -0.0640977)
(0.0322696 -0.000816475 0.00271567)
(-0.0329478 -0.00693131 0.000810211)
(0.0183614 4.21564e-05 0.00885175)
(-0.0263257 -0.0298398 -0.000500296)
(-0.00818673 -0.00323706 0.000583447)
(-0.0148251 0.0026373 -6.75813e-05)
(-0.00649247 -0.00529619 0.000385481)
(-0.00216733 0.000511155 0.000629617)
(-0.00339067 -0.00585008 0.000256143)
(-0.00444535 0.0030167 -5.41451e-05)
(-0.00264643 -0.00330776 -0.000112902)
(-0.00289288 -0.0108045 6.95409e-05)
(-0.011737 0.0104478 -0.000259508)
(-0.00512491 0.00754065 -0.00076123)
(-0.00487395 0.0122831 -0.000386768)
(-0.0141232 0.013336 -0.0011671)
(0.00548076 0.00618933 -4.90759e-05)
(-0.00221305 0.00276214 0.000109217)
(-0.00212135 0.00131718 5.443e-05)
(0.00212238 0.00462082 0.000683151)
(0.00147813 0.000206441 1.63724e-05)
(0.000510267 -2.14361e-06 3.91744e-05)
(0.00060604 4.80846e-05 8.06583e-05)
(0.000557995 3.38065e-05 2.95942e-05)
(0.000798623 1.8904e-05 -1.01592e-06)
(0.000545639 -2.75651e-06 -1.33505e-06)
(0.00109156 1.23667e-05 -1.11623e-06)
(0.00054853 3.7655e-05 -3.69292e-06)
(0.000553259 6.84312e-06 -4.18138e-06)
(0.000922468 7.95012e-05 -1.63151e-06)
(0.000923902 1.06994e-05 -6.73088e-07)
(0.000536246 -1.77269e-05 -3.86048e-06)
(0.000913789 -1.10345e-05 -8.76458e-07)
(0.000891309 -3.23369e-05 -4.65917e-06)
(0.000800601 1.83071e-05 -5.23504e-08)
(0.000814102 1.99194e-05 -5.61962e-07)
(0.00106137 3.60641e-05 1.19528e-07)
(0.000808404 7.63056e-06 8.92528e-08)
(0.000796682 2.21534e-06 -1.71048e-07)
(0.00107379 1.18646e-05 1.93045e-07)
(0.000811211 4.68107e-06 8.27668e-08)
(0.000809524 2.24659e-06 1.45718e-07)
(0.0010801 8.03089e-06 1.83102e-07)
(0.000813071 2.54586e-06 3.10261e-08)
(0.000811415 9.41905e-07 5.33637e-08)
(0.00108243 4.17917e-06 1.7913e-07)
(0.000813583 1.55907e-06 4.76229e-08)
(0.000813177 6.31289e-07 3.34442e-08)
(0.00108407 2.43997e-06 1.86035e-07)
(0.00081341 1.00123e-06 6.71345e-08)
(0.00081333 -7.76895e-08 7.18099e-08)
(0.00108404 1.63102e-06 1.78327e-07)
(0.000812311 6.38643e-07 3.85605e-08)
(0.000812769 1.62034e-07 4.65287e-08)
(0.00108297 9.97872e-07 1.77457e-07)
(0.000811235 3.43595e-07 4.43357e-08)
(0.000811694 6.17577e-07 4.37381e-08)
(0.00108151 6.66145e-07 1.60246e-07)
(0.000809878 1.65283e-07 8.7977e-08)
(0.000810438 1.69619e-07 5.24177e-08)
(0.00107987 2.20128e-07 1.81101e-07)
(0.000808265 1.19231e-07 1.01561e-07)
(0.000809156 -1.22418e-07 1.0155e-07)
(0.00107791 1.92896e-07 2.35463e-07)
(0.000806949 5.04959e-08 8.18711e-08)
(0.000807729 -3.2431e-07 8.40831e-08)
(0.00107589 8.98738e-08 2.01812e-07)
(0.000805393 -1.98495e-08 6.11285e-08)
(0.000806223 1.18529e-07 5.3282e-08)
(0.00107396 8.10299e-09 2.46891e-07)
(0.000804104 9.39533e-09 6.13323e-08)
(0.000804732 2.46879e-07 4.8916e-08)
(0.00107215 -7.0367e-08 1.04619e-07)
(0.000802476 3.3223e-08 6.64308e-08)
(0.000803179 2.02878e-07 6.6569e-08)
(0.00107015 1.39576e-07 1.80847e-07)
(0.000800913 1.13973e-08 4.83165e-08)
(0.000801633 -3.65658e-07 6.43484e-08)
(0.00106799 2.97887e-08 1.99673e-07)
(0.000799478 1.17617e-07 4.67968e-08)
(0.000800262 -1.87009e-07 5.43539e-08)
(0.00106602 8.06251e-08 1.85525e-07)
(0.000797738 2.42244e-07 5.34978e-08)
(0.000798741 1.50939e-07 3.68691e-08)
(0.00106397 3.16445e-07 1.56787e-07)
(0.000796316 2.60799e-07 6.02913e-08)
(0.000797097 4.69758e-07 6.26743e-08)
(0.00106183 4.295e-07 1.58143e-07)
(0.000795227 1.58169e-07 5.52999e-08)
(0.000795599 -4.96823e-07 3.89629e-08)
(0.0010601 3.35295e-07 1.84766e-07)
(0.000793842 1.08047e-07 5.99892e-08)
(0.000794289 -8.77426e-08 4.92367e-08)
(0.00105867 1.12244e-07 1.82272e-07)
(0.000791268 -3.85774e-08 5.49656e-08)
(0.000792452 1.32502e-06 6.94835e-08)
(0.00105588 1.85388e-07 2.26211e-07)
(0.00078999 -4.59795e-07 -9.71813e-09)
(0.000790495 -4.48138e-07 5.55433e-08)
(0.0010532 -3.07139e-07 1.74303e-07)
(0.000788662 -6.56497e-07 -2.49723e-08)
(0.000789277 1.86775e-06 3.55264e-08)
(0.00105166 -9.49132e-07 -2.78721e-08)
(0.000787009 -5.86435e-07 4.6544e-08)
(0.000787936 8.6315e-07 3.06745e-08)
(0.00104949 -8.14851e-07 9.05871e-08)
(0.000786144 -5.07584e-07 6.94488e-08)
(0.000786585 1.26088e-07 1.36261e-07)
(0.00104783 -7.31184e-07 1.63798e-07)
(0.000784588 -2.71872e-07 5.91567e-08)
(0.0007855 -3.6728e-07 1.30327e-07)
(0.0010464 -5.43025e-07 1.8443e-07)
(0.000783161 -1.12051e-08 5.50299e-08)
(0.000784046 -1.01476e-07 5.63936e-08)
(0.00104438 -7.98574e-08 1.72976e-07)
(0.000781376 5.81671e-08 4.76588e-08)
(0.000782328 1.75884e-08 3.98923e-08)
(0.00104217 1.21433e-07 1.82909e-07)
(0.00077994 7.37273e-08 4.59869e-08)
(0.00078082 1.10873e-07 4.3309e-08)
(0.00104 7.36871e-08 1.72703e-07)
(0.000778551 2.29398e-07 1.80112e-08)
(0.000779401 1.24606e-07 4.909e-08)
(0.00103802 1.63232e-07 1.64375e-07)
(0.000776987 3.94887e-07 3.02618e-08)
(0.000777897 2.6329e-07 4.40682e-09)
(0.00103613 5.2108e-07 1.85298e-07)
(0.000776128 2.55504e-07 4.86447e-08)
(0.000776479 -9.52834e-07 5.18083e-08)
(0.00103465 5.74405e-07 1.89658e-07)
(0.000774565 6.02073e-08 5.16292e-08)
(0.000775136 1.62097e-07 4.29498e-08)
(0.00103295 1.08899e-07 1.73381e-07)
(0.000772953 -2.00752e-07 1.23608e-08)
(0.000773546 7.9088e-08 6.77058e-08)
(0.00103068 5.88271e-08 1.69622e-07)
(0.000771989 -3.81843e-07 1.00682e-07)
(0.000772283 1.01165e-06 -3.092e-09)
(0.00102925 -5.68891e-07 -2.21886e-09)
(0.000770285 -2.55155e-07 1.41849e-07)
(0.000771094 -3.44562e-07 1.53297e-07)
(0.00102732 -4.12488e-07 1.82859e-07)
(0.000768744 -1.94032e-07 -6.49842e-08)
(0.000769532 -2.07679e-07 3.5354e-08)
(0.00102502 -2.60104e-07 1.73383e-07)
(0.000767393 -2.25956e-07 -5.54912e-08)
(0.000768055 -2.62629e-08 -5.3714e-08)
(0.0010232 -2.68906e-07 1.68915e-07)
(0.000766026 -3.75891e-07 1.06462e-07)
(0.000766675 -1.59644e-07 5.75388e-08)
(0.00102134 -3.15921e-07 1.7447e-07)
(0.000764656 -3.96885e-07 6.86923e-08)
(0.000765364 -3.95035e-07 1.00411e-07)
(0.0010197 -6.29461e-07 1.68608e-07)
(0.000762802 -2.57457e-07 2.14938e-08)
(0.00076372 1.31327e-06 3.08769e-08)
(0.00101741 -3.9812e-07 7.80841e-08)
(0.000762318 -4.86997e-07 4.82098e-08)
(0.00101503 -3.04225e-07 2.59143e-07)
(0.0230916 0.0198635 -0.000136847)
(0.0127323 0.00615969 0.000176931)
(0.0131263 0.00665358 -7.70985e-05)
(0.016357 0.00877689 -0.000141178)
(-0.00536405 -0.00192171 -0.00177982)
(-0.0112678 0.00687292 -0.000399306)
(-0.00308601 -0.0072804 -0.000508793)
(-0.0216579 0.0125962 -0.00329186)
(-0.0174311 0.037114 -0.000258414)
(0.00540824 0.000806153 5.00656e-05)
(0.00633577 -0.00105032 0.000134017)
(0.00252516 -0.00458562 4.40143e-05)
(-0.0144478 0.00674891 -0.000258981)
(0.000602192 -0.000445778 -0.000284777)
(-0.0168333 -0.00131312 -0.00123832)
(0.00269289 -0.000511836 -0.00143306)
(0.0135144 0.00381474 -0.000347451)
(0.00151121 0.00635229 0.000195486)
(0.000936256 -0.00593197 -0.00228894)
(0.000849528 0.00267542 0.000268583)
(0.00289153 0.00145181 0.000383881)
(0.00408811 -0.000496134 0.000257558)
(0.000134757 0.0017149 7.12598e-05)
(0.00140073 -0.0063632 6.49623e-05)
(-0.00306199 -0.000160187 0.00143797)
(0.00851037 -0.00179107 0.000456058)
(-0.000220634 -0.00277051 1.08329e-05)
(0.000374705 -0.0020959 0.000164777)
(-0.001722 -0.00358015 8.84624e-05)
(-0.00316437 -0.0041197 -1.71625e-05)
(-0.00280291 0.00185306 0.000465925)
(-0.0075102 -8.92977e-05 0.000230583)
(-0.00136215 -0.00512384 0.00038045)
(-0.00654775 -0.000454795 0.0013426)
(-0.00285278 -0.00270346 2.82068e-05)
(-0.00176546 -0.00747149 3.93211e-05)
(0.00489683 -0.00619415 0.000123037)
(0.00217383 -0.0166831 -0.000643883)
(0.00365196 -0.0133067 0.000380819)
(0.000398071 6.30869e-05 6.27901e-05)
(0.00063983 0.000105087 2.9115e-06)
(0.000979368 3.09955e-05 -1.05761e-05)
(0.000779926 8.85575e-05 -3.79334e-05)
(0.000907294 2.39622e-06 9.36053e-06)
(0.000282027 -1.1312e-05 -1.92981e-06)
(0.000440795 -1.36483e-05 -3.11402e-06)
(0.000417814 -3.07449e-05 -3.23647e-07)
(0.000686691 -1.92759e-05 -9.93573e-07)
(0.000290399 -1.55685e-05 -2.15761e-06)
(0.000516465 -2.28743e-05 -2.84277e-06)
(0.000536776 -3.37443e-05 -2.74656e-06)
(0.000791872 -2.81238e-06 -6.80788e-07)
(0.00084033 -2.09577e-05 -1.66415e-06)
(0.0011129 1.39815e-06 -9.02046e-07)
(0.000557414 -1.01693e-05 -3.55859e-06)
(0.000569709 -1.38394e-05 -4.46767e-06)
(0.000917963 -2.33443e-05 -4.35746e-06)
(0.000946438 -3.01146e-05 -5.7005e-06)
(0.000803579 -4.20045e-06 -1.14687e-07)
(0.000794884 -1.31626e-05 -4.08861e-07)
(0.00105178 -6.84722e-06 8.70272e-08)
(0.000809482 -2.23077e-06 1.16345e-07)
(0.000811992 -7.61929e-06 1.58924e-07)
(0.00107843 -3.07176e-06 2.08739e-07)
(0.000812168 -1.44045e-06 5.57882e-08)
(0.000812406 -4.51491e-06 3.95726e-08)
(0.00108046 -2.10227e-06 1.82384e-07)
(0.000813126 -8.91891e-07 5.76188e-08)
(0.000813866 -2.73664e-06 5.91198e-08)
(0.00108316 -1.26135e-06 1.88223e-07)
(0.000812899 -5.98346e-07 5.12124e-08)
(0.000813699 -1.84892e-06 5.1335e-08)
(0.00108333 -8.55962e-07 1.80886e-07)
(0.000812304 -4.23564e-07 5.17072e-08)
(0.000812989 -1.14772e-06 5.28483e-08)
(0.00108272 -6.00906e-07 1.81318e-07)
(0.000810857 -1.84037e-07 5.18173e-08)
(0.000811994 -1.01828e-07 5.52373e-08)
(0.00108126 -4.35979e-07 2.14536e-07)
(0.000809784 1.03579e-07 6.59747e-08)
(0.000810799 -7.09255e-07 1.032e-08)
(0.00107953 -1.39435e-08 1.93841e-07)
(0.00080858 2.9871e-07 8.40776e-08)
(0.0008094 -6.65323e-07 6.49654e-08)
(0.00107806 2.77738e-07 1.82592e-07)
(0.000807116 2.9106e-07 5.55039e-08)
(0.000807719 -3.71205e-07 7.605e-08)
(0.00107624 4.64846e-07 1.71445e-07)
(0.000805493 2.77428e-07 4.10709e-08)
(0.000806206 1.58919e-07 3.36132e-08)
(0.00107415 2.64542e-07 1.79752e-07)
(0.000803845 2.63796e-07 5.4147e-08)
(0.000804714 3.34426e-07 4.75346e-08)
(0.00107203 4.52939e-07 1.79156e-07)
(0.000802276 2.85787e-07 6.44872e-08)
(0.000803205 9.29905e-08 4.87206e-08)
(0.00106988 2.34885e-07 1.86659e-07)
(0.000800989 3.47538e-07 7.03889e-08)
(0.000801708 -4.95181e-07 7.06618e-08)
(0.0010679 5.27749e-07 1.6402e-07)
(0.000799596 2.9553e-07 4.44317e-08)
(0.000800195 5.90243e-07 -1.86286e-08)
(0.00106624 4.21785e-07 1.10373e-07)
(0.000798037 1.60592e-07 4.60374e-08)
(0.000798572 2.64795e-07 4.03704e-08)
(0.00106427 4.21579e-07 1.71791e-07)
(0.000796371 1.55119e-08 4.13534e-08)
(0.000796915 1.29952e-08 8.15025e-08)
(0.001062 7.16794e-08 2.21631e-07)
(0.000794615 -1.2696e-07 3.28965e-08)
(0.000795421 -9.1258e-08 4.12641e-08)
(0.00105972 1.40806e-08 1.69364e-07)
(0.000793184 -5.76309e-07 5.87247e-08)
(0.000793729 -2.24685e-07 5.43106e-08)
(0.00105769 -3.32227e-07 1.7941e-07)
(0.000791452 -7.33463e-07 7.00655e-08)
(0.000792258 1.45783e-06 8.45657e-09)
(0.0010556 -1.20342e-06 1.87233e-07)
(0.000789637 -5.21718e-07 1.00794e-07)
(0.000790762 -3.97978e-07 8.08727e-08)
(0.00105308 -7.60108e-07 2.00674e-07)
(0.000788713 -3.81952e-07 9.11747e-08)
(0.000789453 -6.18264e-08 1.11408e-07)
(0.00105138 -6.28764e-07 2.62374e-07)
(0.000787406 1.20685e-08 1.20359e-07)
(0.000788429 -9.78211e-08 5.73779e-08)
(0.00104995 -3.7993e-07 2.28091e-07)
(0.000785929 3.55626e-07 1.97141e-07)
(0.000787014 6.58619e-07 2.38864e-07)
(0.00104802 4.62449e-07 1.37405e-07)
(0.000785093 2.60525e-07 1.27587e-07)
(0.00078538 1.13929e-06 1.75316e-07)
(0.00104659 5.6839e-07 1.1308e-08)
(0.000783193 7.86608e-08 4.12611e-08)
(0.000783818 2.92529e-07 6.86367e-08)
(0.00104471 1.74645e-07 1.85319e-07)
(0.000781685 9.42453e-08 3.55414e-08)
(0.000782347 7.33103e-08 4.09323e-08)
(0.00104232 5.82954e-08 1.74595e-07)
(0.000780332 1.78706e-07 4.64103e-08)
(0.000780925 7.86995e-08 7.8902e-08)
(0.00104044 2.14432e-07 1.67197e-07)
(0.000778756 2.77262e-07 3.54994e-08)
(0.000779522 1.80131e-07 5.07033e-08)
(0.00103862 3.02235e-07 1.81078e-07)
(0.000777322 4.26681e-07 2.59387e-08)
(0.000778082 3.97242e-07 3.04251e-08)
(0.00103652 5.23172e-07 1.62705e-07)
(0.000775479 3.26551e-07 4.61162e-08)
(0.000776352 -8.29035e-07 3.21866e-08)
(0.00103422 6.79219e-07 2.00365e-07)
(0.000774288 3.08825e-08 5.90188e-08)
(0.000774765 -9.38302e-08 6.13177e-08)
(0.0010323 1.93768e-07 1.69144e-07)
(0.000772574 -1.20969e-07 5.22748e-08)
(0.000773356 6.1054e-07 6.35327e-08)
(0.00103033 -1.19884e-07 1.59544e-07)
(0.000771572 -2.85633e-07 4.94749e-08)
(0.000772079 -1.32362e-07 8.98757e-08)
(0.00102844 -2.13864e-07 2.16506e-07)
(0.000770361 -2.76096e-07 4.68384e-08)
(0.000771108 -2.53828e-07 7.6369e-08)
(0.00102715 -5.92825e-07 1.46223e-07)
(0.00076881 -1.43171e-07 4.66515e-08)
(0.0007697 -1.50669e-07 6.15871e-08)
(0.00102527 -1.94743e-07 1.795e-07)
(0.000767303 -6.36755e-08 5.9282e-08)
(0.000768155 4.54417e-08 5.36281e-08)
(0.00102319 -2.1046e-07 1.74509e-07)
(0.000766013 -6.26956e-08 5.14743e-08)
(0.000766677 3.14429e-07 6.60159e-08)
(0.00102137 6.04614e-08 1.2567e-07)
(0.000764572 -2.62244e-07 6.26165e-08)
(0.000765115 -4.4172e-07 5.72997e-08)
(0.0010195 -1.82364e-07 1.77338e-07)
(0.000762979 -3.07247e-07 5.75876e-08)
(0.000763667 4.47332e-07 7.48261e-08)
(0.00101739 -4.81824e-07 2.51347e-07)
(0.000762701 7.08871e-08 5.59876e-08)
(0.00101601 -3.20528e-07 8.38749e-08)
(0.00345559 -0.00590911 0.000367345)
(0.00328708 -0.00297771 0.000427854)
(0.00647707 -0.0128132 0.000487641)
(0.00653707 0.000351564 0.000422896)
(-0.000656153 0.00182756 0.000752238)
(0.00779086 0.0153597 -9.04019e-05)
(0.0163057 0.0128479 0.000919903)
(0.00279526 -0.00465811 5.84366e-06)
(0.00273252 -0.00419641 -6.56067e-05)
(0.00515192 -0.00675636 0.000514907)
(-0.00643914 0.00443523 -0.00033754)
(-0.000243569 0.00171017 0.000110052)
(0.00907439 0.00446222 0.00052747)
(-0.000836188 8.90741e-05 0.000183133)
(0.00354496 -0.00261937 0.000341468)
(0.00168672 -0.0059124 0.000145687)
(0.00625924 -0.00134278 9.07856e-05)
(0.000943993 0.00038414 0.000132162)
(0.000672404 -0.00519416 0.000292583)
(0.00382573 -0.00261967 0.000334538)
(-0.00218961 -0.0018291 -0.000599747)
(0.00207882 -0.0053404 0.000180948)
(0.00620588 -0.00113594 0.00203743)
(0.00124291 0.00387908 0.000889153)
(-0.000360606 -0.00360197 -0.00124398)
(-0.000569632 -0.00703639 0.000636731)
(0.00544071 -0.00672863 -0.000498327)
(0.00546231 0.0116846 0.00213455)
(0.00826189 -0.00616501 -0.00102218)
(-0.000853556 -0.00976078 -0.000530044)
(0.00542469 -0.00134733 -0.000591409)
(-0.0013315 0.00837356 -8.43698e-05)
(-0.000827212 -0.00187076 -0.00185913)
(-0.00260667 0.00449571 -0.000224063)
(0.0002576 0.00585349 -8.30615e-05)
(-0.000128253 0.00458687 -3.27066e-05)
(-0.000201762 0.0075477 0.000491776)
(-0.00104898 0.0118891 -0.000173112)
(0.000849702 -0.000677906 4.74685e-05)
(0.00110433 1.43505e-05 0.000120499)
(0.000995074 -0.000549833 4.15424e-05)
(0.00137282 -0.00028236 3.32776e-05)
(0.000906997 -0.000117554 5.45545e-05)
(0.00032693 -4.22583e-05 7.0147e-08)
(0.000482216 -2.00814e-05 -3.43365e-06)
(0.000742348 -4.54886e-05 -5.10488e-07)
(0.000346555 -3.87464e-05 1.12583e-06)
(0.000619195 -9.27069e-05 5.41681e-06)
(0.000664368 -6.0167e-05 6.78395e-06)
(0.000435166 -4.18307e-05 -6.54898e-07)
(0.00032318 -1.44726e-05 5.50351e-07)
(0.000583949 -2.91547e-05 7.21876e-06)
(0.000530729 -3.72984e-05 -1.88371e-06)
(0.000292037 -1.97748e-05 -2.01886e-06)
(0.000807223 -2.2547e-05 -1.39263e-06)
(0.000858723 -3.07344e-05 -1.90141e-06)
(0.00112971 -3.47664e-05 -1.22569e-06)
(0.000587714 -1.66096e-05 -3.99418e-06)
(0.000585075 -1.42543e-05 -4.72936e-06)
(0.000978925 -2.35461e-05 -4.8486e-06)
(0.000985522 -1.79306e-05 -5.59529e-06)
(0.000812156 -1.37996e-05 -1.35436e-07)
(0.000806029 -1.99865e-05 -4.04662e-07)
(0.001068 -2.15406e-05 8.18942e-08)
(0.000813978 -8.37813e-06 8.21902e-08)
(0.0008188 -1.22126e-05 1.52162e-07)
(0.00108604 -1.29502e-05 1.97255e-07)
(0.000814746 -5.17212e-06 4.28979e-08)
(0.000816434 -7.4827e-06 2.52526e-08)
(0.0010847 -7.97404e-06 1.76364e-07)
(0.000814658 -3.22952e-06 5.28386e-08)
(0.000816307 -4.69125e-06 5.77463e-08)
(0.00108563 -4.93978e-06 1.81058e-07)
(0.000813876 -2.03863e-06 5.29705e-08)
(0.000815195 -2.94464e-06 5.21906e-08)
(0.00108487 -3.12618e-06 1.82082e-07)
(0.000812758 -1.33014e-06 5.63777e-08)
(0.00081388 -1.82485e-06 5.31715e-08)
(0.0010835 -1.96856e-06 1.82689e-07)
(0.000811976 -8.64935e-07 1.37546e-08)
(0.000812579 -1.21481e-06 5.48352e-08)
(0.00108225 -1.36224e-06 1.8442e-07)
(0.000810493 -5.40532e-07 9.29317e-09)
(0.000811206 -1.00223e-06 7.01922e-09)
(0.00108076 -8.16362e-07 1.88895e-07)
(0.00080862 -4.42248e-07 5.69343e-08)
(0.000809525 -2.76414e-07 4.2462e-08)
(0.00107851 -5.6638e-07 1.75995e-07)
(0.000806638 -3.63778e-07 5.4173e-08)
(0.000807819 9.48089e-08 5.75027e-08)
(0.00107587 -6.02732e-07 1.80712e-07)
(0.000805579 -3.09062e-07 4.00725e-08)
(0.000806276 -5.12961e-07 3.68258e-08)
(0.00107395 -3.75444e-07 1.8027e-07)
(0.000803909 -2.24e-07 4.21078e-08)
(0.000804821 3.15004e-07 5.77719e-08)
(0.00107211 -4.41178e-07 1.88473e-07)
(0.000802786 -7.98482e-08 5.48881e-08)
(0.000803386 -4.74605e-07 4.97329e-08)
(0.00107024 -1.5436e-07 1.79743e-07)
(0.000800802 -2.9072e-08 -1.83274e-08)
(0.000801772 -7.95672e-07 3.19054e-08)
(0.00106822 -7.31328e-08 2.36603e-07)
(0.000799301 -1.63468e-07 -2.27087e-08)
(0.000800028 -4.44584e-07 -3.14847e-08)
(0.00106588 -2.16585e-09 2.46384e-07)
(0.000797282 -2.33303e-07 7.58225e-08)
(0.000798485 1.10813e-06 7.67156e-08)
(0.00106353 -4.29874e-07 1.60899e-07)
(0.000796082 -1.90606e-07 8.14259e-08)
(0.000796969 -3.76678e-07 8.01949e-08)
(0.00106131 -1.86027e-07 1.76028e-07)
(0.000794557 -1.84744e-07 6.26742e-08)
(0.000795428 -6.66821e-08 6.2863e-08)
(0.00105959 -2.80709e-07 1.75852e-07)
(0.000792666 -1.14372e-07 4.05703e-09)
(0.000793817 -1.53382e-07 6.87399e-08)
(0.00105715 -1.51914e-07 2.05193e-07)
(0.000791727 1.31607e-07 1.92409e-08)
(0.000792565 -7.74473e-07 -2.24899e-08)
(0.00105535 -1.09395e-07 2.83996e-07)
(0.000790296 5.51376e-07 9.1477e-08)
(0.000791286 -1.06977e-06 6.52481e-08)
(0.00105393 4.96686e-07 2.1779e-07)
(0.000789315 7.19405e-07 7.76281e-08)
(0.000789661 -1.144e-06 5.50278e-08)
(0.00105214 9.98968e-07 2.07476e-07)
(0.000788079 6.02335e-07 1.75827e-07)
(0.00078828 -1.83033e-06 1.72046e-08)
(0.00105085 9.25369e-07 2.7655e-07)
(0.000786465 5.22597e-07 2.17059e-07)
(0.000786912 4.31598e-07 1.65479e-07)
(0.00104901 6.82783e-07 2.03551e-07)
(0.000784098 3.57075e-07 1.16399e-07)
(0.000785172 7.79736e-08 9.67904e-08)
(0.00104603 6.81191e-07 3.30108e-07)
(0.00078294 1.71998e-07 6.83165e-08)
(0.000783586 1.65201e-07 6.5979e-08)
(0.00104374 2.1767e-07 1.5636e-07)
(0.000781594 1.419e-07 8.42811e-08)
(0.000782309 -8.88683e-08 4.597e-08)
(0.00104222 1.87616e-07 1.75626e-07)
(0.000780112 6.7837e-08 8.32038e-08)
(0.000780832 5.87129e-08 8.59348e-08)
(0.0010403 1.55731e-07 1.77898e-07)
(0.000778776 1.62092e-08 4.56353e-08)
(0.000779458 6.59075e-08 4.28594e-08)
(0.0010384 2.02899e-08 1.71706e-07)
(0.000777333 -5.01333e-08 3.66725e-08)
(0.000777999 4.59775e-07 2.84541e-08)
(0.0010366 3.66734e-09 1.68676e-07)
(0.000775418 -3.40131e-08 4.7379e-08)
(0.000776373 -4.70268e-07 1.90765e-08)
(0.00103424 -1.44157e-07 1.89934e-07)
(0.00077396 1.89674e-08 6.58309e-08)
(0.000774831 -3.92764e-08 5.9774e-08)
(0.00103195 6.52837e-08 1.70816e-07)
(0.000772665 9.76149e-08 1.01126e-07)
(0.000773454 3.43103e-07 5.52137e-08)
(0.00103017 7.60062e-10 1.79361e-07)
(0.000771653 1.64245e-07 1.16774e-07)
(0.000772161 4.95354e-07 1.25567e-07)
(0.00102867 3.24529e-07 8.93118e-08)
(0.000770634 1.10557e-07 9.11222e-08)
(0.000771039 -1.67684e-06 2.53011e-08)
(0.00102735 2.40089e-07 2.38507e-07)
(0.000768953 1.34903e-07 6.85661e-08)
(0.000769729 -1.9226e-07 5.85421e-08)
(0.0010255 2.09313e-07 1.98462e-07)
(0.000767513 2.40368e-07 6.03582e-08)
(0.000768285 -9.43337e-08 4.63338e-08)
(0.00102352 2.74389e-07 1.83865e-07)
(0.000765781 2.31236e-07 7.18441e-08)
(0.000766664 2.12339e-07 7.641e-08)
(0.00102138 4.28754e-07 2.07822e-07)
(0.0007642 1.15891e-07 6.9504e-08)
(0.00076497 -5.5731e-08 5.3253e-08)
(0.00101902 2.35745e-07 1.58541e-07)
(0.000763191 7.80492e-08 7.32318e-08)
(0.000763618 -1.91804e-07 5.39501e-08)
(0.00101724 1.16953e-07 1.81366e-07)
(0.000762604 1.2791e-07 6.55936e-08)
(0.00101603 1.04867e-07 1.58493e-07)
(0.00247341 0.000467695 -4.9338e-06)
(0.00401087 -0.0037711 -1.43244e-05)
(0.00140726 -0.000257834 -8.39025e-05)
(0.00204713 -0.00365017 9.8001e-05)
(0.000868221 0.00124928 0.0003443)
(0.00321511 0.00139243 -0.000148891)
(0.0063614 -0.00526126 -0.000220822)
(0.000593974 -0.00337645 0.000244865)
(0.00914154 -0.00299582 0.000138218)
(-0.00447296 -0.0070631 3.47232e-05)
(-0.0013582 -0.00128815 0.00094887)
(-0.00415577 -0.0110862 0.000902081)
(-0.000369714 -0.00320776 0.000168107)
(0.0042046 -0.0070339 -6.09242e-05)
(-0.000572231 -0.00645089 0.00027728)
(0.00849782 0.000323818 -0.000175225)
(-0.00399709 -0.00205031 -0.000345813)
(-0.00243262 -0.0048787 -0.00568142)
(0.00505385 0.00109134 0.000101533)
(0.00644131 -0.000990833 -0.000870032)
(0.00188519 0.00300585 0.000338907)
(0.000593552 -0.00865406 -0.000206916)
(-0.00013038 -0.0114599 -0.000428499)
(-0.00169912 -0.0132551 -0.000805896)
(-0.000601529 -0.00284086 2.51496e-05)
(0.00826549 -0.00916729 -0.000178651)
(0.00482293 -0.00425011 0.000227571)
(0.00513167 -0.0181247 -2.74998e-05)
(-0.000348505 0.00155463 0.00849162)
(-0.000393796 -0.00681854 -0.000242836)
(0.00122313 0.00672103 -0.00198451)
(0.00698157 0.00319171 0.000445031)
(0.0126744 0.00260203 0.00019249)
(0.00947442 0.00740428 6.51213e-05)
(0.0125481 0.00400668 -0.000633833)
(-6.08868e-05 -0.00199527 4.82892e-05)
(0.000901328 0.00195481 0.000138747)
(-0.00101933 0.00169512 -7.9825e-05)
(-0.00171627 0.00332422 0.000138229)
(-0.000479359 0.00206782 -0.000196616)
(0.00166999 0.000112654 -0.000111972)
(0.00166143 -0.000528509 2.44853e-07)
(0.00195652 -0.000410363 -5.71901e-05)
(0.00220547 -0.00143306 -8.10193e-05)
(0.00146026 9.16053e-05 -3.95622e-05)
(0.00118776 8.27719e-05 -0.000263182)
(0.000870123 0.000368709 -8.84151e-05)
(0.00159659 -0.00112367 1.89778e-05)
(0.00154464 -0.000860844 6.10538e-05)
(0.00196693 -0.000893948 1.64642e-05)
(0.00134184 -0.000447679 6.59224e-06)
(0.00217731 -8.70109e-05 7.20423e-05)
(0.00281797 0.000390189 5.7007e-05)
(0.0012839 -0.000379743 9.27314e-05)
(0.000463298 -7.21492e-05 2.89953e-05)
(0.000335423 -2.55085e-05 6.85003e-06)
(0.000395442 -2.35025e-05 2.00961e-05)
(0.000559068 -1.68113e-05 1.64447e-05)
(0.000267188 -3.53278e-06 3.0085e-06)
(0.000820356 -2.975e-05 -9.13933e-07)
(0.000881881 -4.07616e-05 -1.66932e-06)
(0.00115896 -4.77453e-05 -1.10465e-06)
(0.0005985 -3.61296e-05 -4.28094e-06)
(0.000601996 -2.75867e-05 -5.07525e-06)
(0.000995856 -6.3101e-05 -4.88006e-06)
(0.000998211 -4.36715e-05 -4.71867e-06)
(0.00082101 -1.766e-05 -1.17245e-07)
(0.000821293 -2.15424e-05 -4.06455e-07)
(0.00107963 -2.78216e-05 8.72428e-08)
(0.000819797 -1.07248e-05 9.52663e-08)
(0.000827515 -1.31957e-05 1.43732e-07)
(0.00109546 -1.69699e-05 2.09972e-07)
(0.000818422 -6.585e-06 4.00904e-08)
(0.000821635 -7.85323e-06 3.6698e-08)
(0.00109052 -1.01979e-05 1.81963e-07)
(0.000816882 -4.10199e-06 5.71001e-08)
(0.000819426 -4.90087e-06 7.98147e-08)
(0.00108925 -6.47349e-06 1.85728e-07)
(0.000815249 -2.47891e-06 5.23913e-08)
(0.000817234 -2.98832e-06 5.29609e-08)
(0.00108706 -3.9105e-06 1.82838e-07)
(0.000813624 -1.47832e-06 5.16286e-08)
(0.000815136 -1.86548e-06 4.73959e-08)
(0.00108494 -2.33198e-06 1.82404e-07)
(0.000811923 -1.00714e-06 4.81153e-08)
(0.000813172 -1.14216e-06 5.13909e-08)
(0.00108271 -1.36243e-06 1.81849e-07)
(0.0008103 -8.86276e-07 4.01767e-08)
(0.00081136 -7.7482e-07 4.72892e-08)
(0.00108053 -1.15563e-06 1.65061e-07)
(0.000808707 -8.02814e-07 4.30255e-08)
(0.000809632 -3.00413e-07 4.59052e-08)
(0.00107833 -1.0749e-06 1.80333e-07)
(0.000807386 -6.35216e-07 4.01622e-08)
(0.000808031 -6.66413e-07 1.4246e-07)
(0.00107648 -9.56977e-07 2.08381e-07)
(0.000805485 -4.75408e-07 5.45185e-08)
(0.000806477 -1.65857e-07 5.11474e-08)
(0.00107435 -6.84747e-07 1.82585e-07)
(0.000804314 -3.87863e-07 6.53995e-08)
(0.000804933 -4.78773e-08 7.34071e-08)
(0.00107231 -5.7332e-07 1.69035e-07)
(0.000802469 -4.25871e-07 2.67559e-08)
(0.00080334 -1.25748e-07 5.65897e-08)
(0.00107035 -4.51906e-07 1.78759e-07)
(0.00080094 -4.29977e-07 1.87683e-08)
(0.000801769 1.94072e-07 2.10847e-08)
(0.00106809 -6.62422e-07 1.07176e-07)
(0.000799159 -3.41527e-07 6.79053e-08)
(0.00080014 -8.5161e-09 4.26703e-08)
(0.00106579 -4.56209e-07 1.68023e-07)
(0.000798192 -1.73893e-07 8.10869e-08)
(0.000798696 1.90721e-07 1.06055e-07)
(0.00106404 -4.46066e-07 1.92187e-07)
(0.000796286 6.95505e-08 6.16374e-08)
(0.000797273 5.11995e-07 6.7073e-08)
(0.00106219 -3.72466e-08 1.48359e-07)
(0.000794779 2.15051e-07 6.89268e-08)
(0.000795609 -6.87025e-08 6.49126e-08)
(0.00105976 2.12047e-07 1.76087e-07)
(0.00079349 5.49206e-07 4.22218e-08)
(0.000794233 -5.02996e-07 4.47687e-08)
(0.0010579 4.109e-07 1.8187e-07)
(0.000792357 7.66721e-07 2.34897e-08)
(0.000792834 -2.13446e-06 4.58292e-09)
(0.00105641 1.14779e-06 2.39698e-07)
(0.00079053 7.4982e-07 2.88022e-08)
(0.000791261 3.36247e-07 3.42018e-08)
(0.00105446 9.89227e-07 1.06124e-07)
(0.000788662 7.69577e-07 -5.38378e-09)
(0.000789681 -3.06998e-07 3.77964e-08)
(0.0010519 1.06582e-06 1.50092e-07)
(0.000787026 4.9661e-07 6.81071e-09)
(0.000787936 2.7792e-07 2.48869e-09)
(0.00104955 1.02977e-06 3.97439e-08)
(0.000785848 9.10299e-08 4.52318e-08)
(0.000786403 3.01464e-08 2.34571e-08)
(0.00104771 3.13691e-07 1.77121e-07)
(0.000784416 3.58208e-08 4.63796e-08)
(0.000785102 5.17028e-08 4.8556e-08)
(0.001046 -7.31879e-08 1.73382e-07)
(0.000783054 1.16766e-07 4.36387e-08)
(0.000783686 3.33052e-07 5.32886e-08)
(0.00104409 1.77595e-07 1.53448e-07)
(0.000781522 6.48028e-08 4.76113e-08)
(0.000782244 -2.29266e-08 4.41269e-08)
(0.00104224 1.32297e-07 1.76005e-07)
(0.000780107 1.1584e-08 4.56038e-08)
(0.000780766 -9.3018e-08 5.6725e-08)
(0.00104023 3.10962e-08 1.81266e-07)
(0.000778782 -1.51815e-07 2.56827e-08)
(0.000779254 -5.25466e-08 5.10043e-08)
(0.00103844 -2.88455e-08 1.71076e-07)
(0.000777006 -2.89063e-07 1.08611e-08)
(0.000777828 1.81793e-06 5.45648e-08)
(0.00103631 -4.16942e-07 1.0545e-07)
(0.000775819 -1.36422e-07 3.14589e-08)
(0.000776565 -1.75884e-07 4.7901e-08)
(0.00103429 -3.99518e-07 1.29134e-07)
(0.000774273 1.02002e-07 4.91581e-08)
(0.00077513 1.00246e-07 6.44732e-08)
(0.00103248 1.03934e-08 1.72706e-07)
(0.000772923 3.67981e-07 7.96338e-08)
(0.000773785 -2.77502e-07 1.76109e-07)
(0.00103065 3.00173e-07 2.09832e-07)
(0.000771417 5.60248e-07 3.41252e-08)
(0.000772399 -1.17445e-06 5.86708e-08)
(0.00102873 7.24797e-07 3.00193e-07)
(0.000770343 3.39682e-07 -7.28916e-09)
(0.000770761 -1.1527e-06 -2.49125e-08)
(0.00102701 7.59418e-07 1.02304e-07)
(0.00076898 6.12675e-08 3.63135e-08)
(0.00076938 3.56207e-07 3.61564e-08)
(0.00102531 1.4046e-07 1.26792e-07)
(0.000767618 -2.63599e-08 6.23764e-08)
(0.000768175 2.7222e-08 4.40035e-08)
(0.00102346 4.0963e-08 1.57718e-07)
(0.00076561 -1.12569e-08 5.78261e-08)
(0.000766682 -4.89618e-07 2.12137e-08)
(0.00102132 -1.07132e-07 2.76785e-07)
(0.00076446 1.57865e-07 3.7699e-08)
(0.000765181 -3.07766e-07 -7.13482e-08)
(0.00101911 6.99736e-08 1.65744e-07)
(0.000762874 2.42113e-07 4.63083e-08)
(0.00076372 1.17047e-08 8.61849e-08)
(0.00101722 3.36699e-07 1.72512e-07)
(0.000762302 3.52874e-07 7.07929e-08)
(0.00101574 3.04612e-07 1.23672e-07)
(0.00291644 -0.00366931 0.00033796)
(0.00650909 0.00140839 -0.000494458)
(0.002942 -0.00499762 0.000141999)
(-0.00787869 -0.00452144 0.000176386)
(-0.00143457 -0.00408614 0.000942395)
(-0.0110554 -0.00112351 0.000619301)
(0.00616093 6.94584e-05 -0.000494092)
(0.00681114 0.00167837 -0.000274838)
(0.00526959 -0.000721482 -0.00132961)
(0.002942 -0.00499762 0.000141999)
(0.002942 -0.00499762 0.000141999)
(0.002942 -0.00499762 0.000141999)
(-0.00515818 -0.00938888 0.000319175)
(-0.00834638 -0.00549251 0.000426435)
(-0.00188796 -0.00289727 0.00112491)
(-0.00341729 -0.00654143 -0.000186947)
(-0.00812832 -0.0084161 -5.91288e-05)
(-0.00419514 -0.00780905 -0.000112938)
(-0.00872793 -0.00264252 0.000136996)
(-0.0110428 -0.00903072 -0.000590318)
(-0.00178128 -0.00273453 -0.000302936)
(-0.00384243 0.00390901 -0.000307219)
(-0.00453159 -0.00261015 -0.000634288)
(-0.00171374 0.00464661 1.74562e-05)
(-0.00921385 0.0017869 0.000610636)
(0.00176589 0.00267891 0.000407283)
(-0.00913947 -0.00148125 0.00266367)
(0.00185846 0.00405795 0.000280933)
(-0.0059309 -0.000144899 0.000103415)
(0.00239663 0.00120678 0.000674792)
(0.000337587 -0.00200142 4.94581e-05)
(0.00269842 0.0046473 0.000449514)
(0.00340036 0.00158399 0.000234392)
(0.00373098 -0.000440251 0.000240492)
(0.00180559 0.00165143 0.000120017)
(0.00254002 0.000634999 5.27342e-05)
(-0.00086044 -0.000951752 -7.60156e-05)
(0.00152068 0.000904739 -2.61061e-05)
(0.000537009 0.0001307 -0.000279914)
(0.00205008 0.00304595 -0.000166374)
(0.000768789 -0.000538004 6.09522e-06)
(0.000712883 -0.000167277 -4.43295e-05)
(0.000933341 3.72855e-05 -1.07785e-05)
(0.000620644 -0.000317696 -4.27788e-05)
(-3.3933e-05 -0.000437249 7.96657e-06)
(0.000478083 -0.00250287 -2.7621e-05)
(0.000521054 -0.000486258 5.87717e-07)
(0.00018335 0.000137833 -1.56662e-05)
(0.000893674 7.50439e-05 1.45613e-05)
(0.0012667 0.000468527 -1.11739e-05)
(0.000764303 -0.000149713 5.71317e-07)
(0.00114585 0.000445344 4.33359e-05)
(0.000455949 -0.000129916 3.86982e-05)