/*--------------------------------*- C++ -*----------------------------------*\
| =========                 |                                                 |
| \\      /  F ield         | OpenFOAM: The Open Source CFD Toolbox           |
|  \\    /   O peration     | Version:  5.0                                   |
|   \\  /    A nd           | Web:      www.OpenFOAM.org                      |
|    \\/     M anipulation  |                                                 |
\*---------------------------------------------------------------------------*/
FoamFile
{
    version     2.0;
    format      ascii;
    class       volScalarField;
    location    "3.1";
    object      alpha.water;
}
// * * * * * * * * * * * * * * * * * * * * * * * * * * * * * * * * * * * * * //

dimensions      [0 0 0 0 0 0 0];

internalField   nonuniform List<scalar> 
8577
(
1.03895
1.02862
0.986267
1.00254
1.00916
0.991909
0.00155812
-1.73704e-19
-6.46738e-22
9.14258e-18
1.25768e-18
1.48039e-20
7.93827e-24
4.29321e-28
1.05707e-31
4.41637e-35
1.82517e-38
7.90918e-42
3.38017e-45
1.3569e-48
6.51292e-52
2.77703e-55
1.28136e-58
4.57774e-62
2.39921e-65
2.24981e-68
9.68225e-72
1.71857e-75
2.0096e-78
1.15454e-81
1.15225e-84
2.41642e-88
4.89576e-91
1.40975e-93
4.54341e-97
3.83979e-100
1.60421e-103
5.81499e-106
6.22731e-110
5.93135e-114
4.78701e-117
2.09414e-119
2.47907e-122
1.00606e-124
1.97416e-128
1.52522e-131
2.43445e-135
3.24503e-139
8.5529e-141
3.42874e-144
1.04498
1.00807
1.02708
1.01041
1.02862
1.00178
0.0833693
-4.89428e-18
-5.37158e-20
8.16586e-22
9.50438e-20
3.30926e-21
2.47613e-24
8.76145e-29
1.87057e-32
7.61115e-36
3.19269e-39
1.36017e-42
5.81626e-46
2.35364e-49
9.98677e-53
4.27519e-56
2.09772e-59
9.6504e-63
3.66815e-66
2.73317e-69
7.15366e-73
3.13532e-76
1.22306e-79
1.39383e-82
6.3364e-86
1.70813e-88
2.94005e-92
5.96516e-95
1.69418e-98
2.0504e-101
7.01018e-105
5.68644e-109
2.23877e-110
1.72719e-113
2.34468e-117
2.60582e-120
3.67759e-124
5.10606e-128
2.34694e-130
6.75468e-134
4.69295e-137
9.42058e-141
2.4841e-144
3.93663e-145
1.02322
0.997285
1.02327
1.06151
1.00257
1.00457
0.901757
-4.28904e-17
-2.10632e-19
1.64898e-16
1.34459e-17
5.94908e-20
1.82602e-23
6.21035e-27
1.29354e-30
3.9496e-34
1.62876e-37
7.0192e-41
3.06288e-44
1.30034e-47
5.65868e-51
2.40107e-54
1.06598e-57
4.39262e-61
2.05956e-64
1.08826e-67
4.48777e-71
1.38536e-74
2.25742e-77
3.1499e-80
1.70855e-84
5.00623e-88
2.11293e-89
1.57714e-92
1.12973e-96
5.84841e-100
2.44177e-103
2.64402e-107
5.70226e-109
4.72095e-112
1.18874e-115
4.76689e-119
2.31245e-121
2.49055e-125
2.27835e-129
6.7974e-133
7.57984e-135
8.33595e-138
3.94511e-142
3.19645e-145
1.02273
1.02144
0.964032
1.01426
1.04668
0.996805
1.00002
-8.16347e-16
-8.48159e-18
2.01948e-31
4.39672e-18
3.14215e-19
1.03139e-21
1.0989e-25
9.3793e-30
3.35096e-33
1.39579e-36
6.4821e-40
2.4802e-43
1.03875e-46
4.55622e-50
1.8337e-53
1.24945e-56
5.31819e-60
1.71665e-63
1.14847e-66
2.67254e-70
1.3521e-72
1.8983e-76
3.14721e-80
2.60258e-82
3.86167e-85
3.58683e-89
9.60437e-93
4.30096e-95
5.8011e-99
4.97138e-102
3.92127e-105
2.23648e-107
8.72033e-111
1.18411e-114
4.21072e-117
1.1869e-120
3.34394e-124
1.75548e-126
7.76136e-130
4.38952e-134
2.88664e-137
2.88344e-140
9.34013e-143
1.04302
0.970374
0.895209
1.00881
1.02481
1.00181
1.00174
-3.91232e-14
-1.30449e-18
1.00973e-31
2.19376e-17
2.33187e-18
1.51771e-20
3.44217e-24
1.94607e-28
6.227e-32
2.49779e-35
1.05517e-38
4.432e-42
2.04917e-45
7.63614e-49
4.66986e-52
1.41518e-55
7.14823e-59
2.93299e-62
1.96146e-65
1.01428e-68
6.94492e-72
1.88166e-74
5.48758e-78
5.55683e-81
4.24887e-85
3.06519e-87
3.5227e-91
4.13627e-95
4.63103e-98
3.97014e-100
1.68423e-103
6.46501e-108
5.04904e-110
7.82413e-114
1.04956e-117
1.509e-119
5.61977e-122
1.50136e-125
1.6575e-129
2.12775e-131
9.2872e-135
8.36847e-138
1.24815e-141
1.01587
0.948072
1.01101
1.04235
0.994455
0.988965
1.002
0.00118089
-1.52586e-18
-1.00974e-31
1.71366e-17
1.83976e-18
1.24836e-20
3.02257e-24
1.66021e-28
5.10717e-32
2.11747e-35
1.04233e-38
3.97529e-42
2.51259e-45
7.39993e-49
2.86483e-52
1.21417e-55
8.0536e-59
2.37133e-62
2.9633e-64
6.91871e-68
5.61395e-72
2.81546e-74
4.46579e-77
6.39855e-80
2.80258e-83
1.56579e-87
8.33881e-91
1.16023e-93
3.09071e-97
1.96589e-100
2.33851e-103
1.72387e-107
9.6303e-110
1.85286e-112
6.83963e-115
1.60856e-118
2.75019e-122
4.42956e-126
1.14541e-128
8.6334e-133
1.80713e-136
8.15493e-140
1.81814e-143
1
1.00625
1.06128
1.058
1.00635
0.991191
1.00327
-1.01404e-15
-1.052e-17
1.00971e-31
4.18094e-18
2.9224e-19
9.1674e-22
9.46057e-26
8.55597e-30
3.0564e-33
1.27204e-36
5.45138e-40
2.39763e-43
9.82537e-47
6.76681e-50
1.79241e-53
8.59596e-57
3.88651e-60
4.05063e-63
6.295e-67
2.28982e-70
2.69513e-73
1.86935e-75
2.94308e-79
1.97161e-83
6.46958e-87
2.54274e-90
8.43913e-93
5.57206e-96
7.12238e-99
1.64167e-102
7.31745e-105
4.79953e-108
3.675e-111
2.8585e-115
8.84618e-118
2.17195e-121
2.38218e-125
2.72975e-127
3.85736e-131
4.20677e-133
8.89241e-137
4.39565e-141
1.63746e-142
1.15235
1.03698
1.00346
1.03807
1.05536
1.03455
1.00007
-1.48133e-15
-3.66892e-19
1.66506e-16
1.35557e-17
6.01277e-20
1.89755e-23
6.09623e-27
1.28363e-30
4.01724e-34
1.66017e-37
7.14665e-41
3.12617e-44
1.42119e-47
5.75616e-51
2.7752e-54
1.24241e-57
4.44747e-61
1.86246e-64
1.26147e-67
1.29948e-70
2.60608e-74
6.71818e-78
2.48445e-80
2.13286e-84
5.63212e-87
5.53827e-90
1.126e-93
7.63874e-97
1.86036e-99
1.68085e-103
5.00817e-106
3.70273e-109
2.22619e-112
1.8053e-116
1.0302e-118
4.22278e-122
3.53478e-125
3.75891e-129
3.78424e-133
1.25457e-136
4.88937e-140
1.92786e-143
2.85334e-145
1.03009
1.04615
1.00827
1.00494
1.0114
0.99666
0.81978
-7.8775e-18
4.37858e-16
2.36675e-18
9.67744e-20
4.7711e-21
9.15661e-24
4.9487e-28
5.96017e-32
2.32649e-35
9.71669e-39
4.05749e-42
1.69355e-45
7.03316e-49
2.90566e-52
1.2074e-55
5.01787e-59
2.06802e-62
1.15812e-65
3.68984e-69
1.47504e-72
6.10468e-76
2.45245e-79
1.06833e-82
5.15686e-85
1.18377e-88
2.85092e-92
5.20067e-96
3.77997e-98
1.06767e-101
6.76179e-105
6.47376e-109
1.61577e-112
1.38898e-114
2.10663e-117
4.23484e-120
9.22174e-124
8.05676e-128
4.4369e-131
7.45721e-134
1.92503e-136
2.71019e-139
4.10484e-142
2.97138e-145
1.06276
1.05634
1.00242
0.961259
1.03454
0.996242
0.0853956
-2.90764e-20
1.41083e-23
7.93857e-18
1.26055e-18
2.02357e-20
1.77999e-23
1.17046e-27
2.28403e-31
9.20015e-35
3.85148e-38
1.62299e-41
6.85353e-45
3.04666e-48
1.21733e-51
5.07414e-55
2.10827e-58
8.71513e-62
4.06787e-65
1.77195e-68
8.13832e-72
3.48955e-75
1.43462e-77
3.59562e-81
2.50647e-84
2.17645e-87
1.51089e-90
8.55119e-94
1.01119e-97
8.45154e-101
2.12724e-103
4.22062e-107
2.4357e-109
4.51003e-113
4.26392e-117
2.21515e-120
1.79024e-122
8.2162e-126
3.81527e-129
5.79541e-132
1.61435e-135
1.71061e-138
1.86228e-142
4.00395e-145
1.01917
1.02267
0.986787
0.969387
0.990926
0.978536
0.0044483
7.33181e-15
1.44102e-17
1.90616e-17
3.61657e-18
1.30265e-19
5.45992e-22
2.11836e-25
3.48608e-29
1.98571e-32
1.49081e-35
1.0798e-38
7.67725e-42
5.44476e-45
3.85838e-48
2.72783e-51
1.92299e-54
1.35296e-57
9.49561e-61
6.6465e-64
4.64464e-67
3.23768e-70
2.2506e-73
1.56109e-76
1.07987e-79
7.45017e-83
5.13235e-86
3.52812e-89
2.42112e-92
1.65794e-95
1.13186e-98
7.70431e-102
5.23593e-105
3.55358e-108
2.40635e-111
1.62625e-114
1.09639e-117
7.37311e-121
4.94939e-124
3.31368e-127
2.21367e-130
1.47716e-133
9.83267e-137
3.87255e-140
1.04454
1.00144
1.01565
1.01044
1.02135
1.00564
0.0883369
3.72688e-12
3.83925e-15
3.7079e-18
9.58511e-19
2.83538e-20
5.00662e-23
6.88651e-27
1.78646e-30
1.30318e-33
9.5773e-37
6.81975e-40
4.83398e-43
3.41866e-46
2.41655e-49
1.70348e-52
1.19895e-55
8.42226e-59
5.90387e-62
4.12872e-65
2.88323e-68
2.0082e-71
1.39514e-74
9.6749e-78
6.72581e-81
4.64704e-84
3.19545e-87
2.19906e-90
1.51122e-93
1.03589e-96
7.0938e-100
4.83476e-103
3.2947e-106
2.2384e-109
1.51879e-112
1.02718e-115
6.94109e-119
4.69614e-122
3.1518e-125
2.11647e-128
1.4188e-131
9.49075e-135
6.33544e-138
2.50943e-141
1.05917
0.996894
1.01827
1.05863
1.11465
1.004
0.89997
8.03119e-12
1.0595e-15
1.52317e-15
2.33082e-16
3.63324e-18
3.12651e-21
2.74183e-25
1.03614e-28
7.80511e-32
5.58118e-35
3.90748e-38
2.7307e-41
1.90484e-44
1.32659e-47
9.22139e-51
6.39463e-54
4.42745e-57
3.05759e-60
2.1069e-63
1.44985e-66
9.95032e-70
6.81458e-73
4.66481e-76
3.18647e-79
2.17256e-82
1.47942e-85
1.00465e-88
6.79861e-92
4.5979e-95
3.104e-98
2.09069e-101
1.406e-104
9.43204e-108
6.3124e-111
4.21821e-114
2.81447e-117
1.87461e-120
1.24692e-123
8.27896e-127
5.48368e-130
3.62453e-133
2.3904e-136
9.3468e-140
1.02175
1.0076
0.952465
1
1.00946
1
1.00037
2.48099e-08
1.22535e-14
3.90483e-17
3.01898e-17
3.33939e-18
3.71983e-20
2.54149e-23
2.51431e-27
1.09572e-30
8.2183e-34
5.8775e-37
4.12215e-40
2.88775e-43
2.02058e-46
1.4103e-49
9.81691e-53
6.83244e-56
4.73668e-59
3.2778e-62
2.26476e-65
1.56278e-68
1.0775e-71
7.38901e-75
5.06337e-78
3.46408e-81
2.36314e-84
1.60964e-87
1.09482e-90
7.43016e-94
5.03332e-97
3.40262e-100
2.29451e-103
1.54447e-106
1.03753e-109
6.98663e-113
4.67399e-116
3.12253e-119
2.07778e-122
1.38296e-125
9.18338e-129
6.08943e-132
4.02863e-135
1.57965e-138
1.0419
0.954897
0.997026
0.990106
0.99999
1.0002
1.0022
1.14195e-06
5.94416e-15
2.78562e-16
2.72255e-16
4.81937e-17
9.46631e-19
1.12309e-21
1.17816e-25
3.62549e-29
2.70039e-32
1.94588e-35
1.36389e-38
9.53308e-42
6.66e-45
4.64353e-48
3.22847e-51
2.24174e-54
1.55278e-57
1.07295e-60
7.4039e-64
5.09784e-67
3.50068e-70
2.39954e-73
1.64137e-76
1.1201e-79
7.63326e-83
5.18781e-86
3.51831e-89
2.38289e-92
1.61012e-95
1.08519e-98
7.30192e-102
4.90544e-105
3.28929e-108
2.20241e-111
1.47094e-114
9.79995e-118
6.51837e-121
4.32743e-124
2.86639e-127
1.89585e-130
1.25131e-133
4.89226e-137
1.0191
0.870947
0.994795
0.985517
1.02153
1.00476
1.00266
0.00399532
8.66286e-15
4.94551e-16
4.88793e-16
9.46954e-17
1.96785e-18
2.35916e-21
2.4023e-25
7.29308e-29
5.43652e-32
3.91518e-35
2.74324e-38
1.91626e-41
1.33694e-44
9.31465e-48
6.47391e-51
4.49031e-54
3.10711e-57
2.14451e-60
1.47912e-63
1.01788e-66
6.98717e-70
4.78761e-73
3.27086e-76
2.22891e-79
1.51804e-82
1.03172e-85
6.99232e-89
4.7317e-92
3.19489e-95
2.15267e-98
1.44848e-101
9.72577e-105
6.5168e-108
4.35935e-111
2.90941e-114
1.93646e-117
1.28687e-120
8.53393e-124
5.64634e-127
3.73263e-130
2.46398e-133
9.63717e-137
1.02121
0.88613
0.914563
1.03378
1.03979
0.985296
1.00466
9.06347e-07
9.29102e-15
2.99678e-17
2.10624e-17
2.20884e-18
2.43894e-20
1.76607e-23
1.85239e-27
7.88953e-31
5.84906e-34
4.17053e-37
2.9177e-40
2.04239e-43
1.43746e-46
1.00228e-49
6.93725e-53
4.8376e-56
3.38573e-59
2.31491e-62
1.59784e-65
1.10257e-68
7.59877e-72
5.30664e-75
3.57551e-78
2.44391e-81
1.67068e-84
1.13879e-87
7.80313e-91
5.26538e-94
3.56454e-97
2.41793e-100
1.63567e-103
1.09629e-106
7.36804e-110
4.94717e-113
3.31224e-116
2.21663e-119
1.47589e-122
9.8213e-126
6.58511e-129
4.33233e-132
2.87069e-135
1.19131e-138
1.14437
1.01459
1.00736
1.08664
1.03922
1.02859
1.00031
5.82896e-10
1.16217e-15
1.78261e-15
2.95938e-16
5.28097e-18
5.47187e-21
5.10925e-25
1.72248e-28
1.29501e-31
9.2859e-35
6.50355e-38
4.54479e-41
3.17133e-44
2.20966e-47
1.53605e-50
1.06521e-53
7.37498e-57
5.09517e-60
3.5116e-63
2.41544e-66
1.65757e-69
1.13473e-72
7.76455e-76
5.30455e-79
3.61519e-82
2.45885e-85
1.66825e-88
1.12925e-91
7.63487e-95
5.1507e-98
3.46681e-101
2.33074e-104
1.56321e-107
1.04585e-110
6.98641e-114
4.65819e-117
3.09899e-120
2.05866e-123
1.36473e-126
9.02084e-130
5.95559e-133
3.92848e-136
1.53616e-139
1.03003
1.04707
1.10092
0.893523
1
0.999722
0.819786
3.33505e-13
8.78676e-14
3.1586e-16
8.44703e-19
1.14603e-20
1.43968e-23
2.23028e-27
7.75261e-31
5.6893e-34
4.17625e-37
2.97137e-40
2.10709e-43
1.49371e-46
1.05956e-49
7.49981e-53
5.29955e-56
3.73148e-59
2.63516e-62
1.84715e-65
1.29141e-68
9.03404e-72
6.30846e-75
4.38919e-78
3.06119e-81
2.11606e-84
1.46456e-87
1.00999e-90
6.96105e-94
4.78683e-97
3.28532e-100
2.25044e-103
1.53732e-106
1.04938e-109
7.14071e-113
4.84992e-116
3.29151e-119
2.22434e-122
1.50301e-125
1.01492e-128
6.81234e-132
4.57545e-135
3.07154e-138
1.21717e-141
1.06263
1.02131
1.04581
1.01776
0.693728
0.96306
0.0891445
2.80787e-14
4.30524e-17
1.45134e-17
2.03074e-18
5.94352e-20
2.2096e-22
8.05198e-26
1.45917e-29
8.65695e-33
6.51442e-36
4.73265e-39
3.3785e-42
2.40551e-45
1.71036e-48
1.21291e-51
8.57717e-55
6.05511e-58
4.26346e-61
2.9941e-64
2.09826e-67
1.46715e-70
1.02351e-73
7.1238e-77
4.94556e-80
3.4237e-83
2.36419e-86
1.62948e-89
1.12044e-92
7.69222e-96
5.26751e-99
3.5972e-102
2.45119e-105
1.66758e-108
1.1319e-111
7.66688e-115
5.1822e-118
3.49376e-121
2.35089e-124
1.57801e-127
1.05699e-130
7.07215e-134
4.71797e-137
1.86145e-140
1.03657
1.01161
1
1.00703
0.847229
1.01342
0.00403231
-1.64256e-19
-6.1385e-22
4.27492e-18
6.21543e-19
8.35855e-21
5.56628e-24
3.26654e-28
7.37817e-32
3.14646e-35
1.25852e-38
5.36082e-42
2.34354e-45
1.45946e-48
5.05914e-52
2.15911e-55
9.85681e-59
3.55193e-62
2.31166e-65
2.51953e-68
6.98943e-72
3.14789e-75
3.8819e-78
1.37493e-81
4.63213e-84
1.52407e-88
3.70426e-91
1.14776e-93
4.23264e-97
2.0273e-100
1.84775e-103
1.2181e-106
7.3996e-111
1.85877e-112
8.90011e-116
4.5956e-120
2.06177e-122
1.82422e-126
1.8394e-129
1.18893e-131
3.20603e-135
2.18568e-138
2.95353e-141
5.45194e-144
1.04011
1.01301
0.979017
1.01168
1.01167
1.00484
0.0873744
-4.73732e-18
-5.27428e-20
8.20889e-22
1.11169e-19
3.91603e-21
3.03503e-24
1.08143e-28
2.26942e-32
9.21419e-36
3.86342e-39
1.63917e-42
6.93287e-46
2.84845e-49
1.25712e-52
5.13514e-56
2.40663e-59
9.44312e-63
4.2165e-66
1.9795e-69
7.74945e-73
3.27816e-76
1.06972e-78
2.7208e-82
2.38955e-85
3.30573e-88
3.36826e-91
5.49464e-95
4.0946e-98
2.29859e-101
5.09825e-105
8.73235e-109
6.26074e-110
7.08488e-113
6.27693e-117
1.28605e-120
7.05209e-124
6.07745e-126
1.75754e-129
1.97028e-133
3.22273e-136
2.64646e-140
1.15214e-143
2.74119e-145
1.04332
0.999595
1.01264
1.00217
0.985198
1.00618
0.899922
3.11719e-12
-2.19861e-19
1.63628e-16
1.34499e-17
6.06736e-20
2.05309e-23
7.67833e-27
1.57859e-30
4.68041e-34
1.92319e-37
8.41578e-41
3.62877e-44
1.52246e-47
6.85725e-51
2.79958e-54
1.34675e-57
5.6323e-61
2.48972e-64
9.41983e-68
4.53152e-71
1.63731e-74
7.00759e-78
1.80405e-80
1.93782e-84
5.61066e-88
1.49582e-90
2.06e-93
5.33321e-97
5.2944e-100
2.34959e-103
9.69484e-107
9.04089e-110
1.91457e-112
2.64405e-115
1.50033e-119
9.33285e-123
2.10726e-125
3.48897e-129
7.76932e-133
1.09129e-134
8.48247e-138
1.85346e-141
5.35477e-144
1.04814
1.01853
1.01509
0.919117
0.446622
0.997802
1.00045
1.50447e-08
-8.31989e-18
1.00974e-31
4.54796e-18
3.24758e-19
1.0649e-21
1.12992e-25
9.60987e-30
3.43425e-33
1.43084e-36
6.09295e-40
2.54464e-43
1.07997e-46
4.5494e-50
1.85546e-53
8.92883e-57
5.24959e-60
1.72553e-63
1.02011e-66
2.52804e-70
2.28438e-72
1.1661e-75
6.89362e-80
2.13873e-82
1.1999e-85
1.57589e-89
4.58047e-93
6.91565e-96
2.11826e-99
2.63244e-102
4.34091e-105
2.28317e-109
4.4241e-111
1.97652e-114
3.27326e-117
2.83344e-120
1.12253e-123
1.54856e-126
6.71783e-130
3.88743e-133
1.60339e-137
3.89812e-141
1.75689e-144
1.07629
1.03778
0.999553
0.987744
1.00285
0.995736
1.00204
9.61538e-07
-1.33917e-18
1.00974e-31
2.2634e-17
2.41798e-18
1.57382e-20
3.55146e-24
2.00981e-28
6.25306e-32
2.56882e-35
1.07747e-38
4.77565e-42
1.9634e-45
7.7613e-49
3.32508e-52
1.50813e-55
6.63892e-59
2.90932e-62
5.28923e-65
6.90072e-69
1.92165e-72
1.35369e-75
6.09974e-78
2.9636e-81
1.92302e-85
2.24482e-87
5.13933e-91
1.32145e-93
8.06439e-98
2.4702e-100
1.50681e-103
6.51789e-106
2.37067e-109
1.49548e-113
2.45584e-115
7.6306e-119
1.69006e-122
1.29106e-125
1.08415e-129
3.23064e-131
1.17204e-134
4.89554e-138
1.2244e-140
1.09778
1.02192
0.993487
0.954037
1.04631
1.00269
1.00209
0.00359629
-1.47816e-18
4.22453e-37
1.75629e-17
1.89465e-18
1.28253e-20
3.08641e-24
1.69675e-28
5.24037e-32
2.1694e-35
9.52092e-39
3.96279e-42
3.9402e-45
7.98546e-49
5.08628e-52
2.07195e-55
7.58461e-59
8.13698e-62
9.75571e-66
6.21868e-69
1.69381e-72
6.45137e-76
1.89183e-77
2.75896e-80
1.81089e-83
1.72945e-87
1.77692e-90
1.45867e-94
4.08071e-97
2.92872e-100
2.83311e-103
1.61759e-107
3.14089e-109
1.48078e-112
9.22906e-117
1.08363e-118
6.85542e-122
1.10864e-125
7.93495e-130
1.21729e-132
1.46711e-134
3.0777e-138
1.05998e-142
1.08362
1.00936
1.02485
0.902859
1.04307
0.994474
1.00446
7.68051e-07
-1.02478e-17
-1.00976e-31
4.05785e-18
2.83714e-19
8.89256e-22
9.20064e-26
8.35193e-30
2.98325e-33
1.24143e-36
5.3889e-40
2.2734e-43
9.56675e-47
7.12709e-50
1.88689e-53
7.61862e-57
3.4283e-60
1.77626e-63
1.88483e-66
3.31463e-70
2.21773e-73
1.40834e-75
2.32827e-79
1.84084e-83
8.6511e-86
1.08077e-89
8.07687e-93
2.61183e-95
6.78122e-99
7.51338e-103
5.21022e-105
1.21012e-108
1.06171e-111
5.1085e-115
4.49186e-119
5.23842e-121
1.05972e-124
8.78526e-128
4.85793e-132
1.21959e-135
4.78664e-139
2.66946e-142
3.12084e-142
0.839705
0.994387
1.00519
1.06348
1.01247
1.02392
1.00033
2.89516e-10
-3.06412e-19
1.75647e-16
1.37967e-17
5.69445e-20
1.76165e-23
6.18871e-27
1.28698e-30
3.95805e-34
1.63067e-37
7.0316e-41
3.14754e-44
1.40113e-47
5.67883e-51
2.70365e-54
1.36615e-57
4.37249e-61
4.30035e-64
1.22395e-67
1.2346e-70
1.02503e-73
9.90806e-78
8.91499e-81
1.7756e-84
9.53016e-88
1.16994e-89
2.50055e-93
2.57333e-97
3.45338e-100
6.53006e-103
1.00447e-106
3.02981e-109
1.45346e-111
2.25529e-115
6.9682e-118
1.21673e-121
7.40131e-126
5.74889e-129
8.79836e-133
3.0914e-136
1.20783e-139
4.74584e-143
2.9021e-145
1.04855
1.02712
1.0091
0.968503
0.879807
0.999995
0.820017
9.88906e-14
5.38015e-16
2.66651e-18
9.23366e-20
4.48989e-21
8.5298e-24
4.57958e-28
5.563e-32
2.17318e-35
9.0754e-39
3.78105e-42
1.57658e-45
6.56128e-49
2.71126e-52
1.12822e-55
4.65628e-59
1.93196e-62
7.89634e-66
3.25501e-69
1.38879e-72
5.52952e-76
2.22821e-79
2.20484e-82
3.35059e-85
8.5399e-89
8.75643e-92
5.78291e-95
4.03681e-98
1.61071e-101
4.73338e-105
4.65765e-108
3.59353e-112
2.25657e-114
3.64816e-118
4.91303e-122
3.55187e-124
7.69186e-127
3.58822e-130
1.63908e-133
8.05606e-137
7.49586e-140
4.52835e-142
3.42894e-145
1.06386
1.03638
1.0414
0.981697
0.817571
0.983582
0.088803
-1.16299e-19
8.17988e-24
5.80979e-18
9.168e-19
1.46312e-20
1.3018e-23
8.68031e-28
1.68482e-31
6.77418e-35
2.84333e-38
1.21305e-41
5.0734e-45
2.11703e-48
9.00377e-52
3.81275e-55
1.55933e-58
6.57983e-62
3.08122e-65
1.64502e-68
7.68871e-72
2.24471e-75
1.59789e-78
1.5445e-81
1.99449e-85
2.81391e-87
8.71291e-91
6.60329e-95
4.94473e-98
1.98267e-100
1.3548e-103
1.42577e-107
2.47648e-109
8.40341e-113
3.12383e-116
9.10286e-119
3.15868e-122
2.85442e-126
4.1886e-129
5.563e-132
3.66411e-135
2.70966e-138
2.78085e-142
3.05659e-145
0.509941
0.954654
0.59175
0.969251
0.510618
0.974362
0.592275
0.798079
1.00836
1.00005
1.0074
0.79903
1.00605
1.00008
1.00039
1.00002
1.00024
1.00507
1.00021
0.999745
1.00051
0.999804
1.00074
1.00159
0.997149
1
0.992565
1.00181
1.00288
0.979469
1.00286
1.00414
1.00275
0.990657
1.00246
1.00281
1.0077
1.00526
1.00218
1.00299
1.00596
1.0056
1.00453
0.999823
1.0027
0.97298
1.00639
0.995587
1.00284
1.00071
1.03283
1
1.03318
1.00099
1.03384
1.00002
1
0.992211
0.880049
1
1
0.997531
0.875552
0.790088
0.988285
0.436117
0.998442
0.791282
0.994055
0.438529
0.512537
0.976427
0.593178
1.00832
0.511452
0.990911
0.597462
0.799416
1.00542
1.00022
1.00518
0.800633
1.00401
1.00015
1.0005
1.0011
1.00106
1.0071
1.00039
1.0008
1.0006
1.00031
0.989927
1.00222
0.995638
1.00006
0.999196
1.00168
1.0036
0.995187
1.00296
0.997422
1.00287
0.993632
1.00204
1.00332
1.00064
1.00592
1.00566
1.00252
1.00121
1.00549
1.00631
1.00333
1.00309
0.994976
1.00606
0.998797
1.00275
1.00128
1.03277
1.00011
1.02537
1.00089
1.03276
1.00003
1.00012
0.992995
0.875021
1.00068
1
0.965988
0.875608
0.790617
0.9998
0.439131
0.963756
0.790639
1.00151
0.438646
0.512001
0.994945
0.599143
1.0198
0.512224
1
0.598652
0.799947
1.00407
1.00023
1.00561
0.796095
1.00146
1
1.0006
1.00046
1.00109
1.00758
1.00035
1.00104
1.00024
1.00056
1.00063
1.00224
0.998723
1.00002
0.997593
1.00176
1.00346
0.99993
1.00248
1
1.00283
1.00132
1.00198
1.00266
1.00142
1.0059
1.00288
1.00163
1.00643
1.00539
1.00619
1.00608
1.00294
1
1.00547
0.9929
1.00272
1.00109
1.02858
1.00013
1.01131
1.0006
1.02638
1.00003
1.00012
0.955472
0.878709
0.999995
1.00002
0.953428
0.880557
0.790217
0.998958
0.438436
0.998813
0.790485
1.01148
0.436272
0.999927
1.03438
0.822133
0.986769
0.998384
1.04199
0.967004
0.993587
0.989731
0.987433
0.972352
0.978656
0.992925
0.989002
-3.44254e-19
0.0118387
-4.35412e-23
0.00423202
2.61034e-12
0.0181932
2.61036e-12
0.999028
1.04818
1.02126
1.01553
1.00492
1.05025
1.01524
1.00154
1.00227
1.00091
1.00412
1.0026
1.00111
1.00173
-3.44569e-24
0.672385
-2.37473e-15
0.0884679
2.88233e-09
0.673304
1.60034e-09
0.996332
0.973171
0.981267
1.00246
0.992637
0.959194
0.999969
1.00094
1.0029
0.963299
1.00513
1.00279
0.966364
1.00101
-2.60815e-18
1.00006
-7.16999e-19
0.900396
4.17403e-09
1.00018
2.00181e-07
1.00643
1
1.01469
0.860299
1.10962
1.01444
0.962156
0.995531
0.995511
0.995315
0.99778
0.998049
0.998204
0.984778
0.00456032
1.00176
0.216563
1.0009
0.00948462
1.00204
0.227051
1.0139
0.984326
0.782124
0.998489
1.01496
0.998344
0.782661
1.00009
1.00374
1.00189
1.00037
1.00373
1.00137
1.00131
0.318204
1.00219
0.478375
1.00279
0.334711
1.00249
0.480598
0.931246
0.980126
0.936216
0.999556
0.970374
0.978521
1.05876
0.997009
0.999999
0.942333
0.998043
1
0.966975
0.997953
0.499285
1.00356
0.307874
1.0032
0.500959
1.00382
0.32043
0.778115
1.01394
0.969768
1.00926
0.963237
1.01124
1.01805
1.00938
1.00461
0.994068
0.977102
1.00429
0.994624
1.00917
0.208801
1.00115
0.00379303
1.00458
0.215928
1.00127
0.00852254
1.04956
0.960606
1.01902
1.0196
1.04941
0.992004
1.01404
1.02172
1.01266
1.04643
1.03432
1.01238
1.05195
1.02411
-1.21057e-16
0.981097
-9.70249e-18
1.00054
2.60437e-07
0.976336
1.23374e-08
0.961815
1.05276
1.00066
1
1.01806
0.720459
1.14284
0.980512
1.0013
0.952391
0.997814
1.00001
0.965495
0.977303
-8.90768e-20
0.188967
-4.97647e-19
0.820247
9.87108e-11
0.198314
1.16144e-10
1.00911
0.993187
1.00739
0.877968
1.19895
1.07171
0.978836
1.00238
0.997118
1.04339
0.978695
0.997815
1.01543
1.00212
-6.14243e-22
0.000123819
-2.24252e-18
0.0887564
8.15903e-12
0.000452069
8.1589e-12
1.00609
1.01983
0.989333
0.99828
1.01596
1.03425
0.998455
0.991488
0.988458
0.978557
0.997531
0.991631
0.998411
0.998651
1.09363e-11
0.0192118
1.09363e-11
0.00447956
1.09363e-11
0.0177211
1.09363e-11
0.992564
1.04904
1.01407
1.01144
0.989766
1.06065
1.00831
1.00378
1.004
1.0014
1.00625
1.00345
1.00427
1.00142
8.51079e-09
0.673025
4.56521e-09
0.0873652
8.51218e-09
0.673064
4.56521e-09
0.99904
1.03062
1.0429
1.13616
0.99224
1.18864
1.17359
1.00238
1.00476
0.996382
1.00759
0.999549
1.00564
0.982814
8.79657e-09
1.0008
3.14178e-07
0.899715
8.84976e-09
1.00014
3.1462e-07
1.01531
1.02908
0.962087
0.999224
1
1.04702
0.98199
0.968682
0.998449
0.926403
0.999516
0.993324
0.997076
0.957118
0.0102349
1.0022
0.228598
1.00104
0.0102195
1.00195
0.227486
0.973442
0.999857
0.785851
0.999084
0.998657
1.0119
0.928018
1.00001
1.00351
0.989175
0.994627
1
1.00255
0.994991
0.33558
1.00338
0.481089
1.00277
0.335669
1.00227
0.480917
0.975566
0.973732
1.03858
1.02506
0.989925
1.00092
0.924488
0.999967
1.00158
1
1.00467
0.999822
1.00211
0.99758
0.501399
1.00463
0.324351
1.00255
0.50135
1.00382
0.322376
0.968397
1.07879
1.06002
1.05002
0.981172
1.04361
1.01525
1.01328
1.00494
0.934115
0.979074
1.01243
1.00535
0.935081
0.215583
1.0017
0.0092641
1.00433
0.217855
1.00127
0.00924768
0.994684
1
1.00017
1.05903
0.978077
0.996226
1.01338
1.0107
1.01179
1.04811
1.02634
1.01204
1.01142
1.04099
4.05764e-07
0.975655
2.29315e-08
1.00055
4.05158e-07
0.975756
2.29756e-08
1.02927
0.878246
1.02861
0.878254
0.999892
1.05789
0.919806
0.981491
0.998996
0.973449
0.992842
0.981401
0.998747
0.981423
1.93533e-10
0.199566
3.11432e-10
0.820177
1.93281e-10
0.199241
4.34277e-10
1.01452
0.999936
0.993631
0.708403
1.01881
0.934808
0.966763
1.00308
0.995467
1.00868
0.96121
1.00311
0.99304
1.01374
3.40442e-11
0.000486326
3.81488e-11
0.089103
3.40442e-11
0.000495652
3.7121e-11
1.00294
1.01048
0.991884
0.987464
1.00357
1.0134
0.992056
0.998475
1.00464
1
1.01691
0.997775
1.00177
1.00514
2.35716e-12
0.0169246
2.35718e-12
0.00140127
-2.97866e-19
0.0117619
-3.72757e-23
0.99689
1.01885
1
1.00242
0.990411
0.957981
0.977933
1.00455
1.00396
1.00349
1.00497
1.00428
1.00562
1.00325
2.88902e-09
0.673037
1.60567e-09
0.0841097
4.95654e-24
0.672147
-2.34341e-15
0.980238
0.967176
1.01075
0.958858
0.972513
0.913438
1.01583
1.00443
1.00581
0.993909
1.00733
1.00263
1.00576
0.994359
4.1456e-09
1.00073
2.01054e-07
0.901508
-2.63389e-18
1.00007
-5.39169e-19
1.00604
1.03718
1.00591
0.995286
1.02465
1.10428
1.00736
0.974898
0.997572
0.9688
1
0.987527
0.998761
0.955896
0.00946477
1.00204
0.227752
1.00012
0.00452694
1.00141
0.217122
0.921498
1.01835
0.999966
1.02984
0.973997
1.01754
0.999619
1.00265
1.00349
1.00146
0.999277
1.00139
1.00374
1.00434
0.332853
1.00299
0.480432
1.00174
0.317392
1.00169
0.478142
0.988836
1.01537
0.988135
1.01977
1
1.0525
1.00224
1.00017
1.00225
0.991308
1.0031
1.00032
1.0023
0.986633
0.500774
1.00459
0.322616
1.00139
0.499144
1.00347
0.308131
1.01064
0.993798
1.00393
1.04573
1.00995
0.971797
1.00777
1.01115
1.00835
0.998899
0.994544
1.01071
1.00826
1.002
0.213224
1.00163
0.00853211
1.00377
0.207696
1.00108
0.00377345
0.928603
0.941461
1.03742
0.992626
0.906818
0.995654
1.0189
1.00868
1.01027
0.968317
1.01995
1.00632
1.01063
0.972105
2.5492e-07
0.976387
1.242e-08
1.0001
-1.5927e-16
0.981185
-2.6655e-17
0.87708
1.07646
0.917082
1.01451
0.966866
1.10881
0.985239
0.970266
1.00023
0.976703
0.99887
0.975434
0.998859
0.938022
9.85434e-11
0.195061
2.51922e-10
0.819574
-3.65022e-18
0.188757
-2.93747e-17
1.00734
0.838855
0.946504
1.004
0.983505
0.941624
0.975314
1.0039
0.995847
1.02461
0.999856
1.00388
0.994205
1.00909
8.36383e-12
0.000470847
8.36369e-12
0.0839968
-1.00308e-18
0.000119168
-3.16111e-18
1
1
0.437094
0.51027
0.438147
1.00006
1
0.957459
0.870759
0.997941
0.959226
0.913169
0.995279
0.970434
0.9928
0.535846
1
0.591587
0.539043
1
0.995262
0.993135
0.971202
0.988753
0.960217
0.987712
0.992689
0.991187
1.00004
0.511269
1
0.439178
0.438387
1
1.00006
0.964771
0.940739
0.913035
0.993307
0.913097
0.995893
0.942335
0.995418
0.591956
0.53656
0.999901
0.532091
0.999994
0.991036
1.00064
1.00108
0.901187
0.799022
1.00105
0.901263
1.00075
0.995485
0.997437
1.00322
1.00761
0.997795
1.00276
0.998019
1.00027
1
1.00219
1.00001
1
1.00212
1.00064
1.00227
1.00729
1.00406
1.0015
1.00408
1.00147
1.0028
1.00114
0.79753
1.00119
0.899242
1.00151
0.89875
1.00086
0.995585
1.00668
0.999871
1.00292
0.999324
1.00353
0.995292
1.00068
1.00011
1
1.00189
1
1.00238
1.0005
1.00169
1.00202
1.0007
1.00038
1.00203
1.00091
1.00183
0.998689
0.987123
1.00001
0.999957
0.984046
0.999869
0.998676
1.00053
1.00111
1.00002
1.00035
1.00084
1.00003
1.00098
1.00078
1.00466
1.00418
0.986157
1.00348
0.976235
1.00075
1.00188
1.00059
1.00219
1.00091
1.00237
1.00117
1.00174
0.997672
0.999967
0.984794
0.99979
0.987887
0.999873
0.998779
1.00043
1.0012
1.00099
0.999983
1.00095
1.00017
1.00085
0.996932
0.998423
1
0.999871
0.99749
0.999679
0.996727
0.999203
0.999873
1.00195
0.999905
1
1.00148
0.999068
1.00043
1.00075
1.00275
1.00239
1.00052
1.00274
1.00105
0.996084
0.99456
0.996963
0.962618
0.994239
0.983606
0.99485
0.998651
1.00026
0.999588
1
0.998655
0.999985
1
0.999665
0.994707
0.94223
1.00058
0.999459
1.00136
0.998896
1.00081
1.00244
1.0005
1.00246
1.00121
1.00277
1.00056
1.0024
1.00457
1.00332
1.00283
1.00432
1.00322
1.00342
0.999228
0.982229
1
0.983125
1.00155
1
0.99832
1.00192
1.00269
1.00222
1.00273
1.00282
1.00116
1.00233
1.00027
1.01335
1.00388
0.988138
1.00377
0.993791
0.998314
1.00272
1.00355
1.00412
1.00297
1.00468
1.00367
1.00227
1.00003
0.997529
1.00032
1
1.00061
1
0.999962
1.00216
1.00319
1.00272
1.00117
1.00339
1.00139
1.00174
1.0019
1.00232
1.00303
1.00283
1.00206
1.00295
1.00245
0.999844
0.999373
1.00792
1.00273
1.00727
1.00683
1
1.00196
1.00376
1.00678
1.00514
1.00363
1.00585
1.00203
1.00023
1.00038
1.00098
0.997009
1.0004
0.975796
1.00005
1.002
1.00356
1.00192
1.00304
1.00221
1.00351
1.00167
1.00035
1.01458
0.972665
1.00537
0.994142
1.00805
1
1.00175
1.00561
1.00354
1.00656
1.00381
1.00771
1.00148
1.00903
1.00724
1.00744
1.00434
1.0059
1.00725
1.00963
0.999943
0.984091
1.00339
0.996016
0.990859
1.00169
1
1.00345
1.00461
1.00453
1.00272
1.00459
1.00417
1.00442
1.00894
0.976097
1.00417
0.971571
1.00574
0.973656
1.01137
1.01049
1.00465
1.00645
1.00743
1.00627
1.00776
1.00977
0.989451
0.999224
0.94642
1.00218
0.950038
1.00563
0.984113
1.00256
1.00298
1.00443
1.00496
1.00454
1.00582
1.00303
0.993137
1.00367
0.996112
1.00085
1.00426
0.996145
0.992565
1.01154
1.02501
1.00925
1.03368
1.02435
1.00807
1.00774
1.00068
0.999323
1.0012
1.00002
0.99945
1.00125
1.00028
1.01564
1.03354
1.01191
1.04862
1.01238
1.05208
1.01306
0.996466
1.00107
1.00397
0.996162
1.00399
0.996024
1
1.01056
1.03385
1.02496
1.00758
1.024
1.00806
1.00941
1.00009
1.00012
0.999386
1.00135
0.999264
1.00153
1.00007
0.997769
1.00001
1
1
0.999938
1
0.999128
0.982059
0.943747
0.996186
0.995746
0.924202
0.996279
0.981106
0.999603
0.987976
1
0.878565
0.983693
0.99999
0.993314
0.979962
0.994209
1.00063
0.924936
1.00033
0.977493
0.96748
0.997697
1.00013
0.999718
1
0.999923
1.00004
0.997246
0.993499
1.00032
0.928706
0.993156
0.925819
0.997995
0.992486
0.999825
0.87753
0.979183
0.999985
0.980448
0.999986
0.999873
1.00062
1
0.6418
0.790578
1
0.641535
1.00051
0.996584
0.971778
0.997192
0.986259
1.005
0.998056
0.996569
1
0.567953
1
0.436831
0.569215
1.00009
1
1.00284
0.992492
0.998148
1.00379
0.996372
1.00046
1.00303
1.00073
0.790667
1
0.641659
1
0.641078
1.00063
0.999458
1.05055
1.02647
0.999358
1.08195
1.00018
0.997676
1.0001
0.437446
0.57073
1.00001
0.569597
1.00001
1.00009
1
1.00005
0.439264
0.512036
1.00006
0.439132
1.00012
0.969651
0.91405
0.996285
0.977703
0.939474
0.937234
0.983335
0.991326
0.533976
1
0.592673
0.993354
0.537028
1
0.993958
1.00304
1.00409
0.999544
1
0.999166
1.00123
1
0.512074
1.00131
0.439831
0.439586
1
1.00095
0.987463
0.985672
0.989338
0.99654
0.976279
0.986027
0.968231
0.992454
0.595915
0.53597
1
0.54314
1
0.993425
1.0007
1.00126
0.899249
0.800075
1.00097
1.001
0.89928
0.995315
1.00015
1.00399
1.00494
0.995195
1.00034
1.00358
1.0005
1
1.00224
1.00013
1.00068
1
1.00192
1.00401