/*--------------------------------*- C++ -*----------------------------------*\
| =========                 |                                                 |
| \\      /  F ield         | OpenFOAM: The Open Source CFD Toolbox           |
|  \\    /   O peration     | Version:  5.0                                   |
|   \\  /    A nd           | Web:      www.OpenFOAM.org                      |
|    \\/     M anipulation  |                                                 |
\*---------------------------------------------------------------------------*/
FoamFile
{
    version     2.0;
    format      ascii;
    class       surfaceScalarField;
    location    "3.1";
    object      alphaPhi10;
}
// * * * * * * * * * * * * * * * * * * * * * * * * * * * * * * * * * * * * * //

dimensions      [0 3 -1 0 0 0 0];

internalField   nonuniform List<scalar> 
25543
(
3.10996e-08
-1.3597e-08
7.88684e-08
-6.32731e-09
4.74257e-09
-2.83925e-08
3.15686e-08
-4.50808e-09
8.35931e-08
3.09065e-08
3.16351e-08
3.18565e-08
3.11561e-08
2.8281e-08
3.42932e-08
-1.95986e-09
-1.40423e-08
3.33866e-08
1.97487e-08
3.01724e-08
2.22162e-08
-4.83856e-09
2.89134e-10
-1.69553e-09
-3.42663e-09
8.54774e-09
-9.05319e-12
6.27763e-08
6.27764e-08
6.27763e-08
9.76919e-24
-1.9982e-19
1.79956e-21
9.29502e-20
-8.53509e-20
-5.17583e-20
2.2383e-19
2.28998e-26
-6.45855e-23
-1.28137e-25
1.07265e-26
-6.33509e-27
-2.85878e-29
2.26689e-28
-1.57102e-29
-2.68076e-30
2.62432e-31
7.25686e-32
-1.09029e-31
1.49886e-35
1.96625e-35
-2.91933e-34
2.90676e-39
5.45782e-40
-3.66454e-37
1.1216e-42
5.049e-43
9.26266e-42
4.54317e-46
-2.75717e-46
6.43455e-44
1.839e-49
1.04261e-49
-2.90387e-47
7.46204e-53
-4.7399e-54
-3.5332e-50
3.01614e-56
-8.78985e-57
-3.66614e-53
1.2217e-59
2.34208e-60
-7.09788e-57
5.03392e-63
1.48048e-63
-1.18612e-59
2.06211e-66
-1.86902e-67
1.16588e-62
8.41173e-70
3.12153e-72
4.23657e-66
3.40354e-73
-4.70494e-74
-1.04552e-69
1.60328e-76
8.90762e-78
1.24655e-72
8.78632e-80
3.90683e-82
-7.84094e-77
3.27536e-83
-4.86814e-84
5.47077e-79
1.31173e-86
-4.83763e-88
-2.54984e-82
7.51848e-90
1.38651e-91
2.77309e-85
4.44463e-93
-1.21374e-94
2.57686e-88
2.97405e-96
1.02363e-96
-2.07937e-91
1.34605e-99
1.38166e-100
-1.57664e-94
2.76103e-102
-7.66811e-104
4.43037e-97
6.17207e-105
-2.46701e-105
-1.60472e-101
1.29614e-108
-1.38921e-109
5.50947e-104
9.88125e-112
1.56886e-112
3.66894e-107
1.12338e-114
8.31886e-116
-4.68424e-110
2.64183e-117
2.88873e-118
-1.02415e-113
2.0012e-121
-4.53655e-122
1.88033e-118
6.75439e-125
-6.82634e-126
1.03926e-125
5.73539e-128
3.57166e-129
-2.4924e-123
1.17963e-130
-3.32303e-132
-4.42024e-126
1.95471e-133
6.79024e-137
-4.96518e-129
5.527e-136
2.23964e-136
-3.10833e-132
6.28948e-140
1.21435e-141
9.93422e-136
3.78507e-143
1.80561e-143
-1.85099e-138
9.64341e-147
9.69018e-148
-6.04598e-142
1.47351e-149
-3.60408e-153
6.04964e-147
1.47461e-151
6.307e-153
-1.64072e-148
1.41065e-156
1.43975e-156
4.48737e-08
-6.01349e-09
-3.08159e-07
-2.80819e-08
-1.81013e-08
3.21764e-09
-9.61444e-10
-1.75031e-08
3.11012e-08
-1.53782e-08
-3.89784e-08
-4.28947e-07
7.13703e-08
-8.44907e-09
4.64414e-08
-8.22293e-09
-8.94299e-09
-7.84933e-09
-6.94766e-09
3.14464e-08
3.90691e-08
-4.44832e-08
1.61757e-08
2.79534e-08
2.16826e-08
1.23002e-08
-4.32772e-09
3.24947e-10
-2.14561e-09
1.41659e-09
2.76152e-09
-6.16976e-11
-6.60622e-14
1.78161e-08
7.19281e-12
1.78158e-08
1.09037e-21
-1.2195e-18
-2.80951e-19
9.13921e-20
-1.18241e-16
1.33551e-17
1.07075e-16
-1.35003e-18
-2.03859e-18
-1.34152e-18
2.4822e-25
2.66112e-23
2.21743e-24
5.65384e-28
-5.76949e-26
-1.4853e-27
7.74993e-29
-7.37263e-28
-1.0724e-30
1.043e-31
-3.58512e-32
-2.15476e-32
5.20528e-36
-3.70035e-34
-3.34012e-35
7.79106e-40
-1.20043e-37
-9.24532e-39
3.01481e-43
-1.29255e-41
-3.18829e-42
1.21891e-46
-3.32003e-45
5.30798e-45
4.92392e-50
-8.32574e-49
-1.78276e-48
1.98817e-53
-1.30654e-52
-6.72546e-52
8.00621e-57
8.58821e-56
-1.4099e-53
3.2096e-60
-1.23443e-59
-7.2408e-58
1.29142e-63
-8.46875e-63
1.37347e-60
5.23086e-67
-8.19574e-67
2.23117e-66
2.14646e-70
3.18058e-70
5.77708e-67
8.7246e-74
7.74771e-75
-7.58784e-71
3.64879e-77
1.08668e-77
-4.2792e-74
1.60202e-80
5.4041e-80
7.94374e-77
5.97779e-84
-1.88719e-83
1.80786e-80
2.42861e-87
-3.40198e-88
-4.92893e-84
1.10982e-90
2.11312e-91
-7.97707e-87
6.36557e-94
-6.4286e-93
-4.30996e-89
4.48797e-97
7.31957e-99
4.3047e-93
6.29434e-100
5.09192e-101
-1.22935e-95
1.478e-103
-1.89733e-101
-2.51637e-99
1.39374e-106
-2.11788e-105
6.13771e-101
5.66968e-110
1.33201e-110
-1.30734e-105
5.04259e-113
1.56752e-112
5.5586e-108
1.43184e-116
-8.26116e-117
-7.63825e-112
3.41648e-119
7.30652e-121
-1.56389e-120
4.84395e-121
-2.04477e-122
-8.55894e-118
3.58857e-125
-2.08604e-125
1.16821e-120
1.10272e-128
-1.69459e-128
-6.50194e-124
7.89589e-132
-2.3492e-132
-1.50155e-126
1.78821e-135
5.48217e-136
7.68737e-131
8.32619e-139
4.87039e-139
8.06045e-139
8.4098e-142
1.80391e-142
2.46495e-136
2.71871e-145
1.04872e-146
-3.28192e-140
1.49099e-148
-8.21181e-148
-5.79599e-143
4.19001e-152
-7.94807e-152
1.19819e-147
7.78311e-154
7.33066e-156
5.95176e-151
1.34968e-157
-3.80429e-153
1.0049e-07
1.48422e-08
-2.31523e-07
1.1178e-08
-1.85577e-08
2.36628e-07
-3.90417e-09
1.91767e-08
5.70882e-07
2.9496e-08
2.0313e-08
1.98384e-08
5.6712e-07
4.40054e-07
4.25243e-07
-2.95805e-08
1.90851e-09
-6.63631e-08
6.52482e-08
2.54975e-09
6.43978e-08
3.48613e-09
6.85829e-09
5.42922e-09
-9.14468e-08
-8.50351e-08
-3.51513e-08
-3.40188e-08
-5.24117e-09
9.0601e-09
-2.52819e-07
-3.02272e-09
2.43011e-09
1.83904e-09
6.89721e-09
-5.38308e-09
-1.8729e-11
-5.63644e-12
1.45543e-09
-1.31083e-10
1.58314e-09
1.2836e-19
-1.35172e-18
-5.74826e-09
-1.29202e-18
-1.85739e-18
1.59885e-19
8.67301e-19
5.27199e-25
-2.20477e-21
-2.14745e-23
7.3824e-20
7.31117e-20
7.24138e-20
7.68558e-20
1.04459e-25
-2.85288e-25
-1.71862e-26
1.48041e-27
4.7268e-28
4.75293e-30
4.37225e-31
3.65922e-30
-1.43926e-30
3.7582e-35
1.7936e-33
3.41329e-34
1.54848e-38
4.07463e-37
-1.62293e-37
5.47853e-42
9.10176e-41
-3.94684e-41
2.12951e-45
2.39802e-44
-6.17293e-44
8.68451e-49
6.1516e-48
-1.4749e-46
3.57005e-52
1.1238e-51
2.55802e-49
1.46615e-55
5.68265e-55
1.23809e-52
6.00607e-59
8.6525e-59
-4.40548e-56
2.46702e-62
3.37116e-62
9.62975e-59
1.01633e-65
2.70671e-66
-1.05503e-62
4.20191e-69
1.55503e-69
2.82858e-65
1.74646e-72
3.70516e-73
-1.14969e-68
7.71785e-76
-1.21267e-75
1.41972e-72
3.49781e-79
2.38289e-79
-5.2479e-76
1.40826e-82
6.44027e-83
-2.469e-78
7.67911e-86
-1.32644e-86
2.64034e-83
1.0426e-88
1.84462e-90
-1.39596e-84
8.30116e-92
-4.37882e-93
-8.07497e-87
1.15075e-95
-1.01681e-95
4.93831e-96
3.31941e-98
-2.07384e-97
-2.71313e-99
5.66352e-100
6.14952e-102
-1.1307e-96
3.27666e-104
6.02988e-105
-1.48042e-99
5.68689e-108
-1.62335e-108
1.34327e-102
2.51419e-111
-3.40752e-112
2.98741e-106
9.85748e-115
2.46079e-115
-3.53545e-110
1.10282e-117
3.1028e-119
-1.73194e-114
7.38173e-120
2.93778e-121
-3.6179e-116
1.12735e-123
8.91253e-125
1.18025e-119
3.91397e-127
-6.84497e-128
-8.57574e-122
4.85066e-130
1.14333e-130
-7.37585e-125
1.07277e-132
8.84682e-134
-1.12705e-128
8.76629e-137
1.00735e-137
1.42626e-132
2.76979e-140
4.59939e-142
6.04377e-136
2.10604e-143
-2.7429e-144
5.06357e-140
5.95313e-146
1.80606e-147
-1.54225e-141
1.86182e-149
4.9246e-150
-2.06576e-145
4.23261e-153
-2.73989e-155
1.99351e-149
-5.37192e-156
1.10797e-154
9.36567e-09
1.85066e-08
-2.80123e-07
1.98482e-08
1.82519e-08
2.04201e-08
1.38952e-08
9.69479e-09
-6.56938e-08
-6.1341e-08
-9.67822e-08
-1.03598e-07
4.73573e-09
1.86631e-08
9.27223e-09
6.46969e-09
9.55377e-09
5.7892e-09
1.16947e-08
2.08142e-08
-2.45568e-08
2.04292e-08
-5.2182e-09
2.55451e-08
1.28184e-08
-1.33043e-08
-1.09763e-07
-4.75837e-08
-4.05212e-08
-2.57837e-07
5.12171e-08
2.10998e-07
3.0928e-07
7.31325e-10
-1.58932e-08
1.50897e-09
-1.11998e-10
1.43251e-08
-1.86496e-11
8.08272e-12
1.97176e-11
-1.3286e-11
1.04595e-10
-1.22746e-15
-6.62819e-19
3.38927e-17
4.5928e-14
-1.21584e-14
-3.21008e-14
-7.89943e-17
-1.96558e-08
-1.96558e-08
-1.96558e-08
-1.96558e-08
7.09256e-25
-8.44511e-21
1.25348e-22
2.84093e-19
1.11444e-20
2.6546e-19
5.22093e-19
7.48366e-27
-1.16653e-24
-7.42286e-26
2.66285e-27
5.38468e-28
3.06507e-30
2.6738e-29
-3.7441e-29
-1.38249e-30
5.60467e-33
-2.29866e-32
-2.66318e-33
3.3177e-37
-5.36102e-36
-8.09718e-36
1.04602e-40
-2.19344e-39
-3.22938e-39
4.18162e-44
-8.04045e-43
-1.97467e-42
1.69467e-47
2.24625e-47
-1.25301e-45
6.87439e-51
-7.86996e-51
3.92389e-49
2.75049e-54
3.97881e-53
-1.3787e-52
1.10924e-57
6.55038e-57
-2.02473e-57
4.47687e-61
-4.14751e-63
-6.23833e-58
1.86086e-64
-4.25337e-65
5.83817e-62
8.25724e-68
4.89207e-67
-8.7283e-64
3.28408e-71
1.70222e-70
2.68326e-67
1.37689e-74
4.2436e-74
-2.7485e-70
6.12936e-78
-6.46819e-77
-5.25861e-73
3.92532e-81
3.24858e-81
-9.17329e-78
7.10052e-84
1.01795e-84
-3.48454e-80
7.52299e-88
-1.5171e-86
-3.54072e-84
6.02809e-91
-4.90942e-92
5.36917e-87
2.27962e-93
1.91343e-94
-1.06564e-89
1.09344e-96
-5.27323e-98
-1.45413e-92
1.51143e-100
-1.58672e-99
-1.35292e-95
1.09505e-103
4.95619e-105
2.95713e-99
2.00675e-106
6.5387e-108
2.26812e-102
2.68144e-110
2.71573e-111
-9.97445e-106
1.79855e-113
-9.36683e-114
-7.92114e-110
3.87209e-116
-4.77035e-116
6.17548e-112
1.55022e-118
4.34969e-119
-7.07087e-115
1.72296e-122
-1.59762e-122
-2.40253e-118
1.06233e-125
8.92175e-127
-4.72919e-121
1.92443e-128
3.20585e-129
-9.72358e-124
2.77977e-132
-1.7926e-132
7.91387e-127
3.25985e-135
-6.93207e-134
2.83773e-130
1.17686e-137
3.71784e-138
-6.62917e-134
1.42765e-141
1.6356e-143
-1.39349e-137
3.5158e-145
1.89823e-144
-2.16843e-140
1.8081e-148
1.42909e-148
-7.04601e-144
2.14754e-151
-4.20092e-152
-1.54196e-148
-2.20983e-153
-3.42205e-150
2.24754e-08
2.90603e-08
1.7237e-08
-1.14773e-08
1.11731e-08
-7.88086e-09
-1.2102e-08
2.9142e-08
-6.12788e-09
-1.7616e-08
-1.09712e-08
-6.06859e-08
3.1281e-08
9.55476e-08
-9.3406e-08
3.20429e-09
-1.00461e-08
1.19501e-08
-1.65941e-09
-3.53181e-08
-3.46009e-08
3.26872e-08
-1.91293e-08
-6.6413e-08
-2.42884e-08
1.45172e-08
2.69182e-08
-7.02234e-08
-5.64281e-10
-2.67184e-08
4.22902e-09
-4.43326e-09
2.58026e-08
-2.91338e-09
-1.23143e-12
9.17759e-11
-1.16011e-10
3.95795e-10
2.37639e-13
3.67367e-15
3.09097e-08
8.0907e-15
3.09097e-08
5.92395e-23
6.83212e-21
-1.06561e-21
5.71057e-18
5.83933e-18
6.63807e-18
5.35579e-18
1.27457e-25
9.38457e-25
-1.95671e-25
8.99577e-27
9.54701e-27
-5.71852e-31
3.29909e-28
1.67862e-28
-1.37735e-29
1.48682e-31
3.12387e-31
1.14194e-30
6.95684e-36
5.10495e-35
-4.48416e-34
1.80479e-39
1.14482e-38
-5.41679e-37
7.10809e-43
3.15091e-42
-3.08957e-40
2.85199e-46
5.221e-46
-4.64642e-44
1.14795e-49
1.66346e-49
-7.40762e-48
4.64528e-53
4.20929e-53
1.89064e-50
1.88071e-56
1.47777e-56
-7.32293e-53
7.67896e-60
7.36759e-61
-2.47423e-57
3.23761e-63
-4.37316e-64
-8.3677e-60
1.26309e-66
4.94197e-67
-1.04802e-62
5.22101e-70
8.18874e-71
5.96517e-66
2.26617e-73
7.84611e-74
-2.19062e-69
1.10436e-76
9.1603e-77
-1.23481e-71
5.02838e-80
1.75752e-80
-4.0089e-76
4.7152e-83
4.7196e-84
1.37561e-78
7.4817e-86
1.93767e-86
-1.17306e-81
2.08623e-89
-2.14071e-88
-3.17759e-84
1.35803e-92
-3.42255e-94
-2.33692e-88
7.29198e-96
1.49358e-96
-4.25337e-91
1.93425e-98
-3.44408e-101
-7.83054e-94
1.43618e-102
-1.82128e-103
-1.54881e-98
5.17502e-106
5.77657e-107
4.32742e-101
8.0783e-109
1.10174e-109
4.39312e-105
2.89052e-111
-2.22572e-113
-1.09172e-106
3.16343e-115
-1.71496e-116
1.11399e-110
1.34166e-118
6.60142e-120
3.31504e-119
2.26286e-121
-2.3861e-122
1.79866e-116
2.54508e-125
6.04398e-125
-2.37175e-122
3.10585e-128
3.07268e-128
5.86551e-124
1.80051e-130
-1.92943e-130
-7.08603e-126
2.96588e-133
-1.08665e-134
-1.2423e-128
3.22584e-137
-9.56517e-138
1.60546e-132
3.79177e-140
-6.18183e-141
5.36251e-138
2.24295e-142
1.78579e-143
-5.53247e-139
2.7774e-146
1.72808e-146
-1.11449e-142
1.97247e-149
5.96667e-150
-2.04212e-145
3.83449e-154
-3.10486e-148
8.9939e-09
2.25116e-08
1.90162e-08
2.47971e-09
-1.88832e-08
1.89824e-08
-4.94826e-09
-4.97633e-09
-5.55222e-08
1.41485e-07
-2.91387e-08
7.10495e-08
2.21624e-08
5.46763e-09
2.20316e-08
1.20542e-07
1.55785e-07
2.122e-07
9.70834e-08
-2.01413e-08
-1.94192e-08
-2.10673e-08
-2.31741e-08
4.59897e-08
-3.97735e-08
-5.87028e-08
-8.34604e-09
1.06199e-07
2.96186e-08
-4.36727e-09
2.19867e-08
1.36025e-08
1.32322e-08
2.39535e-09
1.57149e-08
3.57024e-09
8.89414e-10
-2.18736e-08
-1.06032e-09
-2.95606e-10
2.91281e-10
3.7151e-11
6.74767e-11
-7.95652e-12
2.95558e-15
6.27763e-08
4.22505e-14
6.27763e-08
-2.6867e-23
2.20595e-21
-1.75432e-21
5.77255e-18
5.50418e-18
6.57157e-18
5.03977e-18
1.93232e-26
4.94216e-25
-1.34212e-25
8.16063e-27
5.29983e-27
-4.27697e-31
2.56441e-28
7.93449e-29
-7.54926e-29
1.25821e-31
1.05678e-31
-8.63957e-31
5.8747e-36
1.24282e-35
-2.88223e-34
1.48582e-39
2.53113e-39
-2.07699e-37
5.8262e-43
4.2461e-43
9.79423e-41
2.36023e-46
1.0477e-46
-4.93946e-44
9.63118e-50
1.1051e-49
-2.52213e-46
3.96101e-53
1.14885e-54
1.63949e-50
1.67573e-56
1.54941e-56
9.17542e-53
6.39767e-60
-4.15053e-60
4.00253e-56
2.56062e-63
4.04092e-64
-1.06314e-59
1.07551e-66
5.20723e-67
-3.76683e-63
4.66522e-70
-5.80742e-71
-1.0748e-65
5.70765e-73
-1.73969e-74
1.48312e-69
3.03881e-75
1.28156e-76
-1.46278e-71
1.62776e-79
-1.61513e-81
-1.44778e-75
8.3557e-83
1.30558e-84
-1.26674e-78
1.98574e-85
1.06783e-88
-1.30234e-81
2.15183e-88
9.1514e-89
-7.44187e-84
2.09892e-91
8.0808e-92
-1.80844e-87
5.42216e-95
-3.02494e-97
-9.03501e-91
1.36543e-98
1.17768e-101
-1.25441e-94
7.24283e-102
6.41394e-103
-1.24933e-96
4.13018e-105
3.67704e-106
-2.44206e-101
1.5612e-108
-6.57759e-111
6.76833e-104
1.0224e-111
-1.09347e-112
-1.3862e-106
6.14544e-115
2.84842e-116
-2.49843e-110
2.70535e-118
-4.14276e-120
-3.46326e-114
6.47272e-121
1.47594e-122
-1.46038e-116
1.43529e-123
-3.79482e-125
1.58726e-120
3.68889e-126
5.0989e-128
6.51668e-123
3.59024e-130
3.21851e-132
-1.37673e-125
1.11864e-133
7.26552e-135
-1.32758e-129
5.31213e-137
1.58771e-140
-2.33559e-132
4.0308e-140
-3.11763e-143
-6.86198e-136
7.80478e-144
4.24417e-145
-3.65744e-144
2.88559e-147
5.75684e-149
7.10275e-143
1.11479e-150
5.34727e-152
-3.95167e-146
6.32925e-155
3.33071e-154
-2.16286e-09
4.44577e-08
-2.2736e-08
1.19445e-07
-2.1061e-07
2.10374e-07
-2.35907e-07
-4.95134e-08
3.11375e-08
9.82954e-08
1.1568e-07
6.26185e-08
1.4822e-07
1.726e-07
6.50475e-08
1.6177e-08
1.23896e-08
2.17582e-08
3.28855e-08
3.13141e-08
3.76801e-09
-3.19524e-08
1.65531e-08
1.63954e-08
2.38273e-08
4.22344e-08
1.57014e-09
3.90692e-08
2.80485e-08
-2.17824e-08
1.02589e-09
1.87525e-08
-2.32688e-09
-8.50343e-09
-9.92746e-09
-3.38061e-10
-7.43957e-10
8.00204e-10
-9.84131e-11
3.47351e-11
-2.3677e-15
-1.31162e-15
2.21645e-08
-5.57664e-13
2.21645e-08
4.86605e-25
6.2205e-21
-2.97149e-21
3.26501e-19
2.47073e-19
5.66579e-20
3.94592e-19
3.1839e-26
6.81914e-25
-3.17022e-26
2.28829e-27
4.38039e-29
1.03218e-30
2.65404e-29
-9.97391e-31
-9.4933e-31
4.71126e-33
4.3365e-35
-1.67864e-33
2.81088e-37
1.65702e-40
-6.66606e-38
8.83957e-41
-1.49147e-41
5.90923e-41
3.51829e-44
-4.0697e-45
-8.22485e-44
1.41709e-47
-1.28332e-48
-4.85248e-46
5.73475e-51
-3.79137e-52
-3.66573e-48
2.32217e-54
-2.54489e-55
4.3476e-52
9.71563e-58
-4.72542e-59
-1.13541e-54
4.1938e-61
-1.75692e-62
-2.45878e-57
1.58699e-64
-1.70687e-66
-1.37369e-61
6.57406e-68
2.68403e-70
-8.73653e-65
3.04348e-71
1.53833e-73
-1.01493e-67
1.55619e-74
6.35921e-76
-1.90467e-70
4.77276e-78
8.64638e-80
4.63289e-78
2.12539e-81
-4.63384e-83
-2.04703e-78
3.5902e-84
-4.32414e-86
-1.21882e-80
1.2868e-86
2.84233e-88
-3.34462e-83
7.72138e-91
-5.59259e-92
3.1433e-86
2.246e-94
-4.29472e-96
-5.67542e-92
8.71466e-98
-1.8025e-99
-1.71952e-95
4.44393e-101
-2.83186e-103
5.46868e-101
4.12277e-104
6.45684e-106
-2.54498e-100
2.38096e-107
-4.23421e-110
-2.36386e-102
1.84044e-110
1.30011e-111
2.85132e-106
1.47039e-113
6.71172e-116
-1.72604e-109
4.05877e-116
-1.67457e-118
-9.54963e-112
1.46248e-119
2.65879e-121
-3.16658e-115
8.80562e-123
4.97697e-124
-1.59821e-117
2.94361e-126
-1.20022e-128
3.41895e-122
3.7316e-129
1.65937e-131
-1.76709e-124
6.85241e-133
5.56931e-134
-5.24187e-128
5.80005e-136
4.85346e-138
1.53242e-131
1.92439e-138
9.28945e-142
-1.09211e-134
6.97667e-142
1.55196e-145
-1.2874e-137
3.84969e-144
1.07743e-147
-1.4644e-140
1.91227e-148
-7.0726e-151
3.51474e-149
2.71692e-151
1.08719e-154
5.22128e-151
1.32793e-154
-2.03472e-150
-2.99424e-09
5.54329e-08
4.43387e-08
-2.46983e-07
1.50237e-07
3.4837e-07
-2.28429e-07
2.28957e-08
-8.14681e-09
4.01845e-11
-1.00388e-08
-7.01716e-09
1.49366e-07
4.80154e-08
4.10773e-08
1.29313e-07
-3.59284e-07
-3.64842e-07
-5.58108e-07
-2.61674e-07
3.8594e-08
4.16094e-08
4.06034e-08
1.36213e-09
4.49682e-08
-1.59998e-07
-2.15378e-08
-2.08017e-08
-2.23766e-08
-2.11214e-08
2.83774e-08
2.91686e-08
2.39287e-08
2.53753e-08
-2.73634e-08
3.06128e-08
-1.12725e-08
-1.44305e-07
5.03403e-08
4.78346e-09
3.59636e-08
1.16423e-09
1.6323e-09
-4.15672e-08
3.62609e-10
-5.36338e-10
1.77324e-09
-1.40235e-12
1.20616e-09
5.64341e-16
-1.95467e-17
4.58199e-09
4.58199e-09
5.53005e-18
5.26028e-16
1.52309e-16
6.71381e-16
-9.43595e-25
-2.65974e-22
-5.74213e-23
2.01997e-21
2.4211e-21
1.19995e-20
-5.45047e-22
9.54019e-26
5.32944e-27
1.34785e-26
1.48811e-27
6.834e-28
-4.73535e-30
4.65419e-31
-1.97359e-31
-2.54042e-30
3.01829e-35
1.58382e-34
-1.7162e-33
1.35393e-38
8.2573e-38
-4.00141e-37
4.77153e-42
7.32713e-42
-3.66617e-40
1.83562e-45
1.39082e-45
-1.97019e-43
7.45479e-49
5.61296e-49
-3.7025e-46
3.06147e-52
1.56488e-52
-2.71535e-49
1.2722e-55
-8.08317e-57
6.42824e-52
5.2913e-59
-1.29289e-60
-1.10254e-55
2.19282e-62
3.87633e-63
7.13809e-59
9.52111e-66
-1.15907e-66
6.84393e-63
3.94552e-69
-5.34781e-71
-5.63916e-66
1.55605e-72
-8.32984e-75
3.80855e-69
7.06264e-76
-6.60604e-78
-6.41528e-72
4.70213e-79
5.20571e-81
-5.0383e-75
3.09556e-82
7.3366e-84
-2.76004e-78
7.89376e-86
-7.58582e-87
8.91551e-82
6.10768e-89
4.17883e-91
1.15817e-87
1.01209e-91
-1.81159e-94
-5.80964e-87
1.72578e-95
-1.41777e-96
4.07135e-91
2.57031e-98
9.22439e-100
-2.93549e-94
1.30704e-101
-1.19869e-102
-4.26467e-97
3.82687e-105
-1.67923e-106
4.80652e-100
4.09118e-108
-2.27878e-111
1.2963e-103
5.72313e-111
-4.58284e-113
2.28488e-106
1.36301e-114
-1.4156e-116
-4.0391e-110
2.293e-117
5.55511e-120
-1.94259e-112
1.03417e-120
1.83143e-123
-2.42041e-116
4.46424e-124
3.24164e-126
-8.74351e-120
2.27736e-127
-9.06124e-130
4.49054e-123
4.81813e-130
6.50603e-132
3.82242e-125
1.27758e-133
8.31179e-136
-1.16251e-128
7.24236e-137
-9.16919e-139
-2.86596e-132
1.86321e-140
8.20304e-143
-5.02701e-135
6.22934e-144
1.43087e-145
-1.66545e-139
2.36728e-147
-4.6562e-149
-8.77083e-147
8.96991e-151
-3.60186e-151
4.8868e-150
-1.48022e-153
-4.01987e-154
4.57477e-153
1.23816e-158
-4.11051e-152
-6.15373e-08
1.82953e-08
3.30064e-07
3.66794e-08
3.97436e-08
3.7782e-08
4.04375e-08
3.29323e-07
3.0539e-07
3.0126e-07
1.10588e-07
2.45362e-08
1.36015e-08
3.03475e-08
3.32449e-08
2.84812e-08
3.39291e-08
2.00223e-08
5.00569e-09
1.58112e-08
9.84334e-08
9.59857e-08
9.78819e-08
6.29513e-08
3.21316e-08
1.15921e-07
9.30632e-08
-3.12527e-09
-4.09257e-08
-1.90643e-08
2.76181e-08
2.63217e-08
6.3126e-08
5.80891e-08
2.92675e-08
2.99458e-08
5.52268e-08
-8.01823e-09
3.89253e-09
-5.61401e-09
2.19603e-09
6.96481e-09
8.83572e-11
1.21665e-10
-2.47392e-08
-9.60804e-11
-2.47003e-08
2.53411e-16
-7.78162e-19
3.22594e-08
3.22594e-08
-9.55905e-19
2.53423e-16
2.53546e-16
2.53389e-16
6.8826e-25
-2.71492e-22
2.39668e-23
9.84144e-22
9.97589e-22
9.69636e-22
9.2315e-22
-3.96403e-28
-1.96353e-26
2.89194e-27
-5.1638e-29
-3.40615e-28
1.08501e-31
3.21082e-31
-1.95263e-30
1.30737e-33
3.23314e-35
-7.92074e-34
-1.13116e-35
2.38622e-39
-1.02335e-37
-9.37164e-40
8.42573e-43
-2.43537e-41
-3.21803e-43
3.37903e-46
-5.81103e-45
-7.50798e-46
1.35888e-49
-1.67311e-48
2.00104e-49
5.46112e-53
-4.22774e-52
-9.93431e-52
2.19257e-56
-1.16252e-55
-7.25696e-55
8.78585e-60
-2.23145e-59
-4.49445e-58
3.51668e-63
-9.90766e-63
1.29535e-61
1.40756e-66
-3.3062e-67
-9.26524e-65
5.62686e-70
-4.14302e-70
-1.57016e-67
2.28656e-73
1.00462e-74
-4.20091e-71
9.3972e-77
1.93032e-78
-3.48099e-74
3.64259e-80
1.93852e-80
-4.27372e-77
1.448e-83
2.23314e-83
2.60814e-80
5.76753e-87
-2.91851e-87
-3.28711e-83
2.2938e-90
-5.67755e-90
3.56571e-87
1.55532e-93
-1.69487e-93
4.54242e-90
2.76783e-96
-5.7021e-97
-1.53835e-92
3.70769e-100
-6.84524e-100
-1.74045e-96
1.31894e-103
-6.42726e-103
-6.81218e-99
9.54094e-107
-2.59724e-106
-1.0796e-103
2.45438e-109
-4.65614e-110
-1.31503e-105
3.24295e-113
1.77868e-113
2.47672e-108
1.51247e-116
1.91381e-115
2.30931e-112
3.97921e-120
-5.90396e-120
7.37761e-116
3.30221e-123
-4.20414e-122
1.64335e-123
1.017e-125
4.09172e-127
-9.74613e-122
1.11075e-128
-6.91453e-129
2.15241e-125
1.53383e-131
1.24174e-131
-2.60728e-127
2.1378e-135
2.28944e-134
-1.45882e-130
6.42754e-139
-5.20247e-139
-4.22245e-134
3.58361e-142
-3.03128e-142
3.23847e-138
4.94131e-145
-5.52803e-145
-3.2023e-140
9.3191e-148
-9.91367e-150
-4.555e-144
1.25358e-150
-1.53318e-150
-4.68229e-147
1.69745e-153
-3.04513e-154
-7.19391e-150
-1.53806e-157
4.12168e-155
1.2857e-08
-3.35087e-08
5.89899e-08
1.82287e-07
2.56992e-08
2.15937e-07
1.20817e-08
1.40257e-08
8.2801e-09
1.01331e-08
2.0497e-08
2.38838e-08
2.34883e-08
2.08309e-07
2.08734e-07
2.22299e-07
2.52673e-08
2.52949e-08
1.26893e-08
2.65185e-08
3.04122e-08
2.70923e-08
3.52581e-08
3.56703e-08
2.64384e-08
2.68353e-08
-2.63153e-08
3.00343e-10
-1.60262e-08
-7.09091e-08
-1.32601e-08
-3.3124e-08
-1.44221e-08
-8.49265e-08
-8.02975e-08
-8.42808e-08
-1.24833e-07
4.0886e-09
-2.91117e-07
-5.6232e-08
2.39338e-09
-1.95461e-09
5.97359e-09
5.12427e-10
-9.07326e-09
-7.15227e-12
-1.42481e-13
1.79725e-08
5.9291e-12
1.7973e-08
2.93806e-22
-6.52716e-21
-1.32853e-19
-4.08789e-19
-9.66854e-19
-1.86287e-19
-1.71288e-18
-1.71232e-18
-1.71674e-18
-1.71245e-18
-3.90408e-26
-1.99369e-25
3.57465e-27
-4.23688e-29
2.07264e-28
-2.45866e-30
4.7347e-31
-1.37768e-32
3.96793e-35
4.15511e-35
5.6901e-39
-6.27014e-39
2.09316e-42
9.66542e-42
8.43586e-46
-9.50604e-45
3.40556e-49
-1.73217e-50
1.37598e-52
6.08144e-51
5.58077e-56
-8.55404e-54
2.2659e-59
-3.66823e-57
9.08507e-63
-1.14729e-59
3.65875e-66
1.44761e-63
1.47161e-69
-5.88919e-67
5.97994e-73
3.81595e-70
2.47464e-76
-6.6285e-73
1.01857e-79
3.71461e-76
4.22364e-83
1.52985e-78
3.49004e-86
-5.67108e-83
6.76933e-89
-2.01594e-85
1.18597e-92
-2.5148e-88
8.67453e-96
-2.1956e-91
6.74355e-99
3.62206e-95
4.32743e-102
-1.57141e-97
1.83734e-105
1.00081e-101
5.57325e-109
-1.30657e-104
5.4048e-112
4.98441e-107
8.47173e-115
-5.00892e-110
4.41525e-118
1.30163e-114
1.52853e-120
-3.88239e-117
1.08616e-124
-5.20145e-122
3.13335e-128
-1.8234e-125
3.41659e-131
4.64486e-126
1.43378e-133
1.33805e-129
1.8413e-137
7.73038e-133
1.45125e-140
8.21113e-136
1.6884e-143
1.64715e-139
5.65667e-147
-5.91664e-143
4.00738e-150
-1.21625e-146
6.99416e-154
2.45754e-149
3.45979e-152
1.00502e-08
6.42804e-09
-2.75752e-07
1.41462e-08
2.46289e-08
7.66084e-08
-3.07322e-08
-7.60883e-09
2.03978e-07
-1.81045e-08
2.61036e-08
6.54393e-09
9.10032e-08
8.16193e-08
7.76088e-08
1.45049e-07
-4.20312e-07
-2.19516e-08
3.07967e-09
-1.59126e-07
6.76112e-09
-3.38079e-08
4.23764e-09
-2.82096e-09
-3.27749e-09
3.60437e-08
-4.62387e-11
-3.47958e-13
1.58936e-13
4.82286e-08
4.82265e-08
-2.71542e-22
-7.19419e-19
-2.37585e-21
2.84506e-19
4.39278e-19
-6.21149e-19
1.84051e-19
2.03409e-25
-2.67379e-22
1.19367e-25
9.77859e-27
-4.60119e-26
2.03227e-29
1.57623e-27
-3.61168e-28
5.03089e-31
1.19382e-29
1.49279e-31
9.27387e-33
6.70994e-33
3.07221e-33
2.69947e-34
9.89914e-37
1.48201e-36
3.55341e-37
4.70116e-40
5.45378e-40
2.49271e-41
3.43014e-43
2.24258e-43
1.43043e-43
2.44879e-46
2.50624e-46
-1.31262e-47
1.70078e-49
1.26182e-50
-1.92919e-50
1.17956e-52
3.27243e-53
4.6605e-53
8.193e-56
1.77075e-56
-2.58392e-56
5.69344e-59
2.23786e-59
-4.20731e-60
3.95472e-62
-9.69923e-63
7.78226e-63
2.74525e-65
-1.00486e-66
-8.46709e-66
1.90424e-68
-6.6037e-70
4.58783e-69
1.31981e-71
-1.1409e-72
-2.86338e-72
9.15082e-75
9.44693e-76
-5.11233e-76
6.34001e-78
1.09251e-78
-1.38919e-78
4.38737e-81
-6.33779e-83
8.22225e-83
3.0315e-84
9.95456e-86
-9.59774e-86
2.09299e-87
-1.52002e-89
-7.44299e-89
1.44314e-90
5.54197e-92
3.99797e-91
9.94588e-94
1.95957e-94
3.8344e-95
6.84812e-97
2.69427e-98
-6.04275e-97
4.70919e-100
6.22614e-100
-3.1742e-100
3.23559e-103
1.84852e-104
-3.10483e-104
2.21938e-106
1.54307e-107
5.11569e-107
1.51848e-109
3.25615e-110
5.93024e-110
1.03795e-112
5.83464e-115
-9.14962e-114
7.09366e-116
8.68532e-117
-5.85255e-122
4.83962e-119
-2.23078e-121
3.20527e-120
3.29516e-122
4.37255e-123
4.65597e-123
2.23993e-125
-2.49491e-126
-4.49994e-128
1.52086e-128
-1.87613e-129
-3.27351e-129
1.02961e-131
7.95701e-132
-6.93821e-138
6.95571e-135
-3.92288e-138
-1.28906e-136
4.68838e-138
8.89745e-139
1.87471e-138
3.15834e-141
-4.88576e-144
1.42614e-143
2.12243e-144
-9.00164e-147
6.59607e-146
1.3611e-147
-1.12933e-150
1.72626e-149
1.63261e-151
1.22029e-151
9.4022e-09
1.16064e-08
1.28351e-07
7.7142e-09
1.82281e-08
3.30982e-07
-7.81375e-09
1.71886e-08
-1.68164e-07
1.74519e-08
1.75991e-08
1.7571e-08
2.04051e-08
-3.27314e-08
-1.35379e-08
6.22002e-08
-1.58878e-10
-1.1467e-08
-2.89792e-09
1.00214e-09
1.022e-08
-2.23044e-09
-3.27213e-08
-3.24709e-08
-3.22088e-08
-4.61644e-07
-8.57891e-10
1.44456e-08
-1.13624e-08
-2.27004e-07
2.75534e-08
2.99406e-09
1.33331e-08
1.70488e-09
3.10632e-09
-4.97412e-08
-3.57545e-11
-8.56753e-12
-2.48327e-12
1.77362e-11
4.55253e-12
6.4133e-15
1.67015e-20
-6.51441e-18
2.61906e-19
1.28334e-17
-1.16393e-17
1.19978e-17
-1.21725e-17
-5.29178e-18
-5.63213e-18
-5.28939e-18
7.83415e-24
1.67552e-22
-5.51862e-24
5.52243e-27
-9.4262e-25
1.27247e-27
2.05e-28
-2.62408e-26
1.03426e-30
1.30574e-30
-2.57232e-30
5.76257e-33
3.24823e-34
3.55459e-34
1.90713e-35
5.92362e-38
8.78583e-38
5.97617e-40
3.99336e-41
7.40205e-41
9.91471e-43
2.87308e-44
1.52835e-44
-3.60584e-45
1.98877e-47
3.73195e-47
-1.94168e-49
1.36711e-50
2.64402e-51
6.25043e-51
9.39882e-54
-1.05013e-53
2.63742e-54
6.46603e-57
-9.05958e-57
3.27267e-58
4.4508e-60
-3.9326e-60
4.84086e-61
3.059e-63
-2.16861e-65
-3.75032e-64
2.10293e-66
3.14946e-66
-4.91448e-67
1.44466e-69
1.26819e-69
3.39677e-70
9.91742e-73
9.89787e-74
3.23356e-74
6.80956e-76
6.68558e-76
-2.96714e-77
4.67295e-79
-5.3066e-80
3.20089e-80
3.20347e-82
-1.4628e-82
-1.38051e-83
2.19425e-85
1.18773e-85
1.56121e-86
1.50187e-88
7.77665e-89
3.76788e-89
1.02889e-91
2.65634e-93
-1.86991e-93
7.03826e-95
2.34561e-96
3.98444e-96
4.81094e-98
-9.59912e-98
5.2956e-98
3.28623e-101
-1.22591e-101
-2.59744e-101
2.24281e-104
2.17714e-105
-4.93858e-106
1.52912e-107
2.18927e-107
-8.95714e-108
1.04162e-110
8.03895e-112
3.28618e-112
7.08807e-114
-2.04169e-114
1.57747e-115
4.81432e-117
-4.52582e-117
1.8865e-117
3.26335e-120
2.95687e-121
9.42436e-124
2.21239e-123
-2.93495e-123
5.79166e-124
1.49765e-126
-5.66745e-126
1.09395e-126
1.012e-129
6.99976e-130
1.82841e-130
6.84209e-133
6.55682e-134
2.90033e-133
4.60863e-136
4.18249e-136
-1.91201e-136
3.10065e-139
8.43731e-141
3.7349e-140
2.08312e-142
-6.27052e-143
3.87202e-143
1.39644e-145
3.04087e-146
1.86096e-147
8.95927e-149
9.23343e-150
5.29969e-151
2.68326e-152
1.01482e-157
-8.01713e-09
1.48543e-08
-5.66875e-08
2.45158e-08
-1.54895e-08
2.59773e-07
-1.55018e-08
-1.26606e-08
-1.3215e-08
2.45276e-08
2.66433e-08
2.75066e-08
2.04334e-08
2.29076e-08
8.56891e-08
-2.6205e-08
-3.61032e-08
-2.86341e-08
-2.08719e-08
-5.9747e-08
-2.0274e-08
-2.62456e-08
4.45883e-09
1.69664e-07
1.2392e-08
6.7891e-08
-3.48009e-09
-1.19669e-08
3.68112e-09
5.59912e-09
-6.19359e-08
-1.16877e-11
1.55067e-10
-1.20357e-11
-8.4207e-11
-7.90409e-11
2.15945e-10
2.34998e-18
-5.50842e-18
1.3928e-17
-4.77141e-18
6.08954e-19
5.33214e-18
2.98157e-18
3.19263e-17
1.63047e-23
-9.58203e-21
1.33028e-22
-5.32763e-20
-4.97441e-20
-5.59482e-20
-4.93752e-20
1.43113e-24
-2.80861e-24
1.68215e-26
8.5724e-26
2.42106e-26
-1.2568e-29
1.42833e-28
2.23722e-28
5.17335e-31
1.44461e-32
1.6986e-31
2.59107e-34
3.94152e-36
4.07573e-35
9.01275e-39
2.87117e-39
1.72278e-38
-1.81691e-41
2.02328e-42
7.75285e-42
1.1416e-44
1.38344e-45
3.26377e-45
7.65437e-47
9.4535e-49
1.68125e-48
6.61093e-49
6.45233e-52
1.32533e-51
3.96724e-52
4.40265e-55
1.61585e-55
-3.07351e-57
3.00018e-58
8.8688e-59
1.221e-59
2.04301e-61
-1.45544e-62
6.04536e-63
1.39074e-64
1.47138e-64
-1.76664e-65
9.45814e-68
4.18178e-68
1.73168e-68
6.42121e-71
1.11231e-70
-2.11292e-71
4.35818e-74
5.75103e-75
-1.63642e-75
2.95476e-77
1.91698e-78
-6.64556e-79
1.9995e-80
1.06176e-80
-4.71923e-83
1.35396e-83
1.67294e-84
-3.38005e-85
9.16734e-87
-6.5358e-87
2.09124e-87
6.19788e-90
1.28338e-90
1.95655e-95
4.19105e-93
-1.77495e-94
5.15324e-99
2.82681e-96
6.70706e-97
9.01725e-97
1.90268e-99
3.88037e-100
-3.08222e-100
1.28065e-102
3.07217e-103
-4.4198e-103
8.61304e-106
-4.8986e-107
-3.70261e-106
5.78462e-109
5.46485e-110
5.61852e-110
3.88312e-112
-2.08461e-113
1.9303e-113
2.60209e-115
3.49734e-116
1.41037e-118
1.74101e-118
1.23596e-118
-6.05085e-119
1.16389e-121
-2.88526e-122
9.63617e-122
7.76715e-125
2.87987e-125
1.17411e-125
5.18325e-128
-3.88604e-128
-2.76715e-129
3.45723e-131
-8.86483e-132
-4.61656e-132
2.30098e-134
1.4852e-134
-8.97051e-136
1.52845e-137
6.25305e-138
-5.92518e-140
1.01335e-140
1.59961e-141
1.10071e-141
6.70448e-144
1.20121e-144
2.3536e-145
4.28348e-147
1.39303e-148
2.19691e-149
-1.17608e-150
2.66418e-151
-1.56128e-08
7.31114e-09
4.21993e-07
-1.4861e-08
-1.70004e-08
-1.36387e-08
8.38839e-09
7.17663e-09
8.20843e-09
-9.41835e-09
-1.53249e-08
-1.12289e-08
-5.16069e-08
-5.29402e-07
-3.58647e-08
-5.36843e-07
-4.31132e-08
-3.35428e-08
-2.11956e-08
2.90752e-08
-1.33148e-07
6.06294e-08
1.22502e-08
9.5043e-09
1.25389e-08
1.17357e-08
-2.67995e-09
-2.26219e-08
-2.21721e-08
-2.53765e-08
-2.63989e-07
1.66567e-08
-2.69896e-08
8.40219e-09
-3.50022e-08
-6.72287e-08
-6.12189e-08
4.74003e-09
-1.73228e-08
5.88318e-09
2.47606e-10
6.96978e-08
-4.52863e-12
1.21336e-10
-5.36588e-11
7.21627e-11
-1.49898e-10
1.20321e-10
6.28146e-15
-1.04762e-17
-5.81087e-16
-2.83296e-16
2.46169e-14
5.82866e-15
-1.69104e-14
-3.34653e-16
-1.06724e-14
-1.05967e-14
-1.06391e-14
-1.07311e-14
3.163e-23
-2.20676e-20
-1.33621e-21
1.72592e-18
1.8064e-18
1.72633e-18
1.79028e-18
1.87805e-25
-4.66188e-24
7.14508e-26
2.6065e-26
8.15156e-27
-1.84879e-30
8.30482e-28
-6.45349e-28
4.03051e-31
1.05687e-30
-2.00331e-30
2.2114e-33
1.10543e-34
-7.38494e-34