/*--------------------------------*- C++ -*----------------------------------*\
| =========                 |                                                 |
| \\      /  F ield         | OpenFOAM: The Open Source CFD Toolbox           |
|  \\    /   O peration     | Version:  5.0                                   |
|   \\  /    A nd           | Web:      www.OpenFOAM.org                      |
|    \\/     M anipulation  |                                                 |
\*---------------------------------------------------------------------------*/
FoamFile
{
    version     2.0;
    format      ascii;
    class       volScalarField;
    location    "3.1";
    object      p;
}
// * * * * * * * * * * * * * * * * * * * * * * * * * * * * * * * * * * * * * //

dimensions      [1 -1 -2 0 0 0 0];

internalField   nonuniform List<scalar> 
8577
(
105.421
104.643
103.574
105.709
110.675
109.202
99.8003
93.7534
90.9086
88.2301
85.6397
83.0969
80.5833
78.1114
75.6626
73.2395
70.8353
68.4616
66.115
63.7896
61.4714
59.1739
56.9037
54.6277
52.3756
50.1437
47.9169
45.6876
43.4779
41.2932
39.107
36.9423
34.8072
32.6662
30.5154
28.3969
26.3315
24.3023
22.2822
20.2533
18.2536
16.2986
14.3441
12.366
10.4158
8.51275
6.61302
4.70478
2.81831
0.942216
103.923
103.5
102.462
101.196
101.926
100.65
98.3609
93.1798
90.5978
88.0803
85.5655
83.057
80.5834
78.1136
75.6585
73.247
70.8329
68.4738
66.1326
63.792
61.477
59.1741
56.8946
54.6268
52.3662
50.1291
47.9057
45.6901
43.4856
41.2956
39.119
36.9553
34.8056
32.6561
30.5182
28.4025
26.3266
24.2857
22.2612
20.2522
18.259
16.3026
14.35
12.3853
10.4234
8.50319
6.5992
4.7016
2.81866
0.941927
102.618
101.554
106.595
102.218
101.845
95.7738
96.1892
93.0607
90.17
87.9109
85.4849
83.0071
80.5432
78.0991
75.6564
73.2307
70.8467
68.4994
66.1519
63.7909
61.4775
59.1777
56.8875
54.6236
52.3681
50.1232
47.896
45.696
43.497
41.3
39.1247
36.9541
34.7825
32.6432
30.5238
28.4165
26.3259
24.2758
22.2584
20.2543
18.2685
16.3012
14.3396
12.3845
10.4331
8.49987
6.59343
4.70281
2.82133
0.94194
99.3925
100.133
100.828
107.958
161.667
91.0871
95.0004
92.8537
90.2142
87.9497
85.5002
83.0428
80.5518
78.0947
75.6589
73.2371
70.8463
68.4901
66.1291
63.7935
61.4856
59.1771
56.891
54.6253
52.3816
50.1354
47.8953
45.7018
43.4903
41.2884
39.1252
36.9502
34.7779
32.6385
30.5323
28.433
26.3317
24.2721
22.2592
20.26
18.2731
16.2916
14.3201
12.3754
10.4406
8.50294
6.59412
4.71005
2.8276
0.936904
101.544
98.842
79.8952
97.9268
99.3993
97.0426
96.7779
94.0997
90.6394
88.1288
85.5886
83.0679
80.5791
78.1053
75.6717
73.2477
70.862
68.4839
66.1112
63.7955
61.4916
59.1779
56.8971
54.6292
52.389
50.1487
47.9048
45.697
43.4794
41.2852
39.1194
36.9407
34.7746
32.6368
30.533
28.4423
26.342
24.2761
22.2626
20.2681
18.2711
16.272
14.3004
12.3658
10.4383
8.50465
6.60181
4.72474
2.83639
0.935012
110.66
88.7667
95.5753
104.889
101.86
99.6945
98.0349
95.2959
90.8856
88.2687
85.6626
83.1099
80.6018
78.1263
75.6984
73.2701
70.8775
68.4921
66.1113
63.79
61.4951
59.1749
56.8972
54.6387
52.3941
50.1631
47.9148
45.6904
43.4692
41.267
39.1079
36.9328
34.7667
32.6386
30.5364
28.4439
26.3522
24.2865
22.2659
20.2682
18.2662
16.2602
14.2878
12.3555
10.433
8.50897
6.61818
4.74889
2.84712
0.938381
121.338
105.419
125.203
105.414
104.165
101.491
98.846
95.1602
90.8245
88.2495
85.6752
83.1273
80.6318
78.1482
75.6985
73.2706
70.8786
68.502
66.1143
63.7778
61.4689
59.1714
56.8949
54.6468
52.4003
50.159
47.9202
45.687
43.471
41.2826
39.1087
36.9229
34.7609
32.6454
30.54
28.4385
26.3575
24.3
22.2681
20.2636
18.2573
16.2544
14.2848
12.3537
10.4289
8.51075
6.62436
4.74839
2.85084
0.946665
116.063
108.4
103.761
101.692
102.131
100.929
98.1074
94.3338
90.7196
88.2162
85.6535
83.12
80.6296
78.1468
75.6764
73.2727
70.8697
68.49
66.1277
63.7708
61.4648
59.1684
56.8952
54.6482
52.3993
50.1632
47.9216
45.6849
43.4836
41.2888
39.1045
36.9203
34.7665
32.652
30.5378
28.4277
26.3572
24.3101
22.2728
20.2531
18.253
16.2632
14.2982
12.3579
10.4277
8.51296
6.62276
4.73748
2.84921
0.951116
110.07
109.905
106.406
101.604
109.193
97.8026
96.4321
93.7656
90.6351
88.1911
85.6458
83.1222
80.6209
78.1396
75.6848
73.2688
70.8474
68.4722
66.1201
63.7795
61.4585
59.1608
56.898
54.6429
52.4003
50.1644
47.9186
45.6826
43.4758
41.2866
39.0909
36.9191
34.7809
32.656
30.5301
28.4174
26.3527
24.3164
22.2781
20.2537
18.2514
16.2747
14.3147
12.3587
10.4238
8.51404
6.61546
4.72663
2.83833
0.951873
109.001
108.67
102.831
98.6663
105.661
97.5304
97.269
93.6918
90.9254
88.2597
85.6733
83.1184
80.5963
78.1344
75.6785
73.251
70.8422
68.4696
66.1151
63.7835
61.4603
59.1625
56.9014
54.6321
52.389
50.1579
47.9186
45.6848
43.4737
41.2881
39.0934
36.9264
34.7998
32.665
30.5201
28.4033
26.3414
24.3111
22.2812
20.2528
18.253
16.29
14.3341
12.3605
10.417
8.51708
6.61801
4.71508
2.82398
0.942839
106.108
104.359
103.576
113.952
109.699
106.146
99.7695
93.7545
90.9085
88.2301
85.6399
83.097
80.5831
78.1115
75.6625
73.2393
70.8353
68.4617
66.1152
63.7894
61.4714
59.174
56.9037
54.6275
52.3756
50.1438
47.9168
45.6876
43.4777
41.2932
39.1069
36.9424
34.8072
32.666
30.5154
28.3969
26.3313
24.3023
22.2821
20.2533
18.2535
16.2987
14.3443
12.366
10.4158
8.5128
6.61294
4.70476
2.81826
0.942293
103.903
103.752
101.958
101.199
100.692
100.443
98.2412
93.1801
90.5977
88.0802
85.5654
83.057
80.5833
78.1136
75.6585
73.2468
70.8329
68.4739
66.1327
63.7919
61.4771
59.1741
56.8944
54.6266
52.3662
50.1291
47.9056
45.6901
43.4855
41.2955
39.1195
36.9554
34.8055
32.6561
30.5182
28.4025
26.3265
24.2858
22.2612
20.2515
18.259
16.3028
14.3499
12.385
10.4234
8.50322
6.5991
4.70166
2.81885
0.941879
101.992
101.534
104.328
102.785
108.936
95.9122
96.2145
93.059
90.1713
87.9108
85.485
83.0071
80.5431
78.0991
75.6564
73.2306
70.8466
68.4993
66.1519
63.7908
61.4774
59.1776
56.8874
54.6236
52.3681
50.1231
47.896
45.696
43.497
41.3001
39.1245
36.954
34.7826
32.6432
30.5239
28.4165
26.3258
24.2758
22.2584
20.2543
18.2685
16.3012
14.3395
12.3843
10.4331
8.49983
6.59326
4.70287
2.82135
0.94192
99.4327
100.087
96.3537
106.706
136.521
91.5594
95.0104
92.8475
90.2146
87.949
85.5002
83.0428
80.5518
78.0947
75.6589
73.2371
70.8463
68.4898
66.129
63.7934
61.4856
59.177
56.891
54.6254
52.3816
50.1352
47.8954
45.7019
43.4904
41.2883
39.1251
36.9501
34.7779
32.6385
30.5324
28.4329
26.3316
24.2721
22.2592
20.26
18.2731
16.2914
14.3199
12.3755
10.4407
8.50293
6.59402
4.71001
2.82759
0.93678
100.849
103.584
80.8195
93.1569
96.1991
98.5838
96.7202
94.0534
90.6395
88.1288
85.5886
83.0672
80.5788
78.1053
75.6718
73.2478
70.862
68.4839
66.1111
63.7958
61.4917
59.1778
56.8971
54.6293
52.3889
50.1487
47.905
45.697
43.4789
41.285
39.1194
36.9406
34.7745
32.6368
30.5331
28.4422
26.342
24.2761
22.2626
20.2683
18.271
16.2719
14.3005
12.3658
10.4383
8.50463
6.60173
4.72467
2.83633
0.935058
110.143
94.0744
103.333
107.186
101.613
99.0795
97.9866
95.2673
90.8858
88.2687
85.6625
83.1099
80.6019
78.1263
75.6983
73.2701
70.8775
68.4921
66.1112
63.79
61.495
59.1745
56.8972
54.6388
52.3942
50.1632
47.9148
45.6903
43.4691
41.2672
39.1079
36.9323
34.7666
32.6386
30.5365
28.4438
26.3522
24.2865
22.2659
20.2684
18.2661
16.2602
14.2878
12.3556
10.433
8.50895
6.61815
4.74891
2.84684
0.938359
118.136
141.706
117.97
103.766
100.599
100.01
98.7765
95.1504
90.8251
88.2493
85.6752
83.1273
80.6318
78.1482
75.6985
73.2706
70.8785
68.5019
66.1143
63.7779
61.469
59.1714
56.8949
54.6468
52.4001
50.159
47.9202
45.687
43.4711
41.2825
39.1087
36.9228
34.7609
32.6453
30.54
28.4385
26.3575
24.3
22.2681
20.2637
18.2573
16.2543
14.2848
12.3537
10.4287
8.51073
6.62446
4.74846
2.85077
0.946772
122.658
109.1
103.341
103.078
101.285
100.421
98.07
94.3308
90.7203
88.216
85.6535
83.12
80.6296
78.1468
75.6764
73.2727
70.87
68.4897
66.1277
63.7708
61.4648
59.1684
56.8952
54.6482
52.3992
50.1632
47.9218
45.6848
43.4835
41.2889
39.1043
36.9203
34.7665
32.652
30.5378
28.4277
26.3572
24.31
22.2728
20.253
18.2527
16.2633
14.2982
12.3579
10.4277
8.51294
6.62275
4.73746
2.84919
0.951234
111.234
110.554
125.246
117.006
107.741
98.3434
96.4897
93.7635
90.6357
88.191
85.6458
83.1221
80.6209
78.1396
75.6847
73.269
70.8474
68.472
66.1202
63.7796
61.4585
59.1609
56.898
54.6429
52.4003
50.1644
47.9185
45.6825
43.4759
41.2866
39.0909
36.919
34.7809
32.656
30.5301
28.4174
26.353
24.3163
22.278
20.2537
18.2515
16.2747
14.3147
12.3586
10.4238
8.51403
6.61542
4.7266
2.8384
0.951876
109.012
107.594
108.46
102.88
100.837
95.2819
97.191
93.6926
90.9253
88.2596
85.6734
83.1184
80.5961
78.1344
75.6784
73.2513
70.8421
68.4696
66.1152
63.7834
61.4602
59.1624
56.9014
54.6321
52.389
50.1579
47.9185
45.6848
43.4737
41.2881
39.0935
36.9264
34.7997
32.6647
30.5198
28.4034
26.3414
24.3111
22.2812
20.2528
18.253
16.2899
14.334
12.3604
10.417
8.51704
6.61788
4.71505
2.82396
0.942822
105.463
104.769
104.101
105.847
149.077
106.034
99.7658
93.7538
90.9085
88.23
85.6399
83.097
80.5829
78.1114
75.6625
73.2391
70.8352
68.4617
66.1152
63.7892
61.4714
59.174
56.9036
54.627
52.3755
50.1438
47.9166
45.6875
43.4774
41.2933
39.1069
36.9424
34.8072
32.6659
30.5153
28.3968
26.3312
24.3023
22.2821
20.2533
18.2533
16.2987
14.3444
12.3661
10.4158
8.51279
6.61281
4.70468
2.81816
0.942245
103.994
103.622
103.652
101.202
100.701
100.409
98.2505
93.1793
90.5976
88.08
85.5654
83.0569
80.5833
78.1135
75.6584
73.2465
70.8328
68.474
66.1326
63.7918
61.477
59.1741
56.8942
54.6264
52.3661
50.129
47.9054
45.69
43.4857
41.2954
39.1195
36.9553
34.8053
32.656
30.5181
28.4024
26.3264
24.2862
22.261
20.2514
18.259
16.3028
14.3498
12.3842
10.4235
8.50322
6.59901
4.70159
2.81893
0.941691
101.243
101.563
98.5818
102.677
95.4146
95.8737
96.2027
93.0606
90.1713
87.9108
85.4848
83.007
80.543
78.099
75.6563
73.2306
70.8466
68.4991
66.1519
63.7907
61.4773
59.1776
56.8872
54.6235
52.3681
50.123
47.896
45.6959
43.497
41.3002
39.1243
36.9537
34.7827
32.6433
30.524
28.4165
26.3256
24.2758
22.2583
20.2542
18.2685
16.3012
14.3394
12.3842
10.4332
8.49976
6.59316
4.70286
2.8213
0.941728
100.615
99.8957
98.5818
115.964
141.375
90.9336
94.9674
92.8515
90.2141
87.9489
85.5001
83.0427
80.5517
78.0946
75.6588
73.237
70.8462
68.4896
66.1289
63.7932
61.4858
59.177
56.8911
54.6254
52.3807
50.135
47.8955
45.7017
43.4904
41.2882
39.125
36.95
34.7778
32.6384
30.5324
28.4328
26.3315
24.272
22.2593
20.2599
18.2731
16.2914
14.3199
12.3754
10.4406
8.50285
6.59392
4.70994
2.82748
0.936453
104.258
93.5712
83.0402
93.0048
102.49
98.0062
96.8233
94.0582
90.6388
88.1291
85.5885
83.067
80.5786
78.1052
75.6717
73.2478
70.8619
68.4838
66.1109
63.7959
61.4917
59.1778
56.8971
54.6293
52.3886
50.1487
47.905
45.6969
43.4787
41.2849
39.1194
36.9406
34.7744
32.6367
30.533
28.4422
26.342
24.276
22.2625
20.2685
18.271
16.2718
14.3005
12.3661
10.4383
8.50457
6.60189
4.72455
2.83622
0.934968
118.771
84.8979
103.554
110.197
106.691
98.8223
98.0143
95.2699
90.885
88.2689
85.6623
83.1098
80.602
78.1262
75.6983
73.27
70.8774
68.4922
66.1111
63.7898
61.4951
59.1744
56.8968
54.6388
52.3941
50.1631
47.9147
45.6901
43.4691
41.2675
39.108
36.9321
34.7664
32.6385
30.5365
28.4437
26.3522
24.2864
22.2658
20.2685
18.266
16.2602
14.2878
12.3555
10.4328
8.50888
6.61816
4.74889
2.84641
0.938325
122.714
125.643
111.139
103.516
100.988
98.3795
98.7626
95.157
90.8245
88.2494
85.6751
83.1272
80.6317
78.1481
75.6984
73.2705
70.8785
68.5017
66.1142
63.778
61.4687
59.1713
56.8949
54.6467
52.4
50.1589
47.9201
45.6873
43.4712
41.2826
39.1087
36.9226
34.7607
32.6452
30.5398
28.4383
26.3575
24.2999
22.268
20.2637
18.2572
16.2541
14.2848
12.3537
10.4286
8.51066
6.62466
4.74821
2.85028
0.946851
153.336
105.683
104.87
100.255
99.7438
100.391
98.0858
94.3306
90.7199
88.2161
85.6533
83.1199
80.6295
78.1467
75.6763
73.2726
70.8703
68.4895
66.1277
63.7707
61.4647
59.1685
56.8954
54.6481
52.3992
50.1631
47.9217
45.6847
43.4833
41.2888
39.1043
36.9202
34.7665
32.6519
30.5377
28.4277
26.3571
24.3099
22.2727
20.2529
18.2526
16.2633
14.2981
12.3578
10.4276
8.51287
6.6227
4.73741
2.84918
0.951215
110.36
110.399
113.819
120.405
110.598
98.1282
96.4846
93.7631
90.6355
88.191
85.6457
83.1221
80.6208
78.1395
75.6847
73.2693
70.848
68.4718
66.1203
63.7796
61.4584
59.1608
56.898
54.6428
52.3999
50.1644
47.9184
45.6824
43.476
41.2867
39.0908
36.9189
34.7807
32.6559
30.53
28.4174
26.353
24.3161
22.2779
20.2536
18.2515
16.2747
14.3145
12.3584
10.4237
8.51405
6.61532
4.72653
2.83857
0.951781
109.007
106.985
109.684
98.5511
97.6217
94.9872
97.2159
93.6921
90.9254
88.2595
85.6735
83.1182
80.5958
78.1345
75.6784
73.2515
70.8421
68.4695
66.1153
63.7833
61.4599
59.1623
56.9013
54.632
52.389
50.1578
47.9183
45.6848
43.4737
41.2881
39.0934
36.9264
34.8002
32.6645
30.5193
28.4035
26.3415
24.311
22.2812
20.2527
18.2529
16.2898
14.3339
12.3603
10.4169
8.51695
6.61769
4.71497
2.82398
0.942757
101.771
102.273
99.7685
106.941
101.725
101.035
99.772
99.2362
97.5867
96.9897
100.665
99.2621
97.4077
96.9937
96.1987
92.5387
94.6377
95.6908
96.199
92.5352
94.5999
94.2554
95.108
96.2917
91.3485
94.2513
95.3059
96.1654
96.6224
98.5972
97.8804
98.5901
96.6782
98.4804
97.8861
98.1646
98.467
98.7268
98.9709
98.1621
98.5423
98.7275
98.8297
100.362
98.6709
101.092
98.9628
100.306
98.672
98.4611
98.3374
96.9761
100.792
98.4575
98.3026
96.9819
96.3338
95.5235
96.3235
98.3428
96.3348
95.3256
96.3735
98.0625
105.711
101.449
99.7676
98.1075
108.845
101.325
101.721
101.091
99.7775
105.986
101.718
100.584
99.8289
99.2685
97.3988
96.9938
100.376
99.2861
97.4101
96.9955
96.195
92.4979
94.607
95.7552
96.1913
92.4691
94.5589
94.2479
95.9524
96.0348
91.319
94.2536
95.2438
96.1407
96.6811
98.6824
97.894
98.0182
96.5896
98.4477
97.9043
98.1928
98.3569
98.8119
99.2126
98.1838
98.0593
98.7253
98.9398
100.522
98.6806
98.466
98.8642
100.235
98.6838
98.4712
98.2706
96.9855
100.439
98.4559
98.0371
96.9951
96.3354
94.9783
96.3907
98.1241
96.3392
95.1788
96.4091
98.1001
107.115
101.306
94.9807
98.0872
105.257
101.303
101.728
100.616
99.8456
106.121
101.783
100.858
99.8191
99.2779
97.4097
96.9961
100.437
99.2236
97.5546
96.9893
96.1904
92.563
94.7081
95.8321
96.1855
92.3059
94.6224
94.3663
95.4063
96.0762
90.9498
94.2509
95.4668
96.0996
96.6787
97.8941
97.9173
98.5817
96.6093
98.2796
97.8978
98.1858
98.1833
98.8038
98.7758
98.2221
101.572
98.7349
98.9188
100.887
98.6705
99.207
98.8245
101.026
98.6846
98.4573
97.9399
96.9968
101.406
98.4742
95.3356
96.9933
96.3408
95.6719
96.375
98.3901
96.3429
97.0751
96.343
98.0764
105.496
101.322
95.2135
98.0538
103.95
101.446
106.078
102.303
116.481
109.487
106.873
102.945
101.616
102.625
103.107
102.693
105.84
101.344
102.59
103.099
96.4859
98.8765
96.0216
99.7785
96.4958
98.7819
96.0312
101.895
100.241
98.9674
100.745
101.138
100.124
98.4648
98.8343
99.8511
99.203
100.338
99.8145
99.1802
98.7947
95.5559
96.6996
94.8511
98.2552
95.564
96.7332
94.8576
94.921
98.4779
97.4401
101.888
94.9974
99.3506
95.7014
94.7922
95.8406
95.4299
95.7664
95.8578
94.7106
94.7866
94.3372
95.0171
93.71
96.2131
94.3449
94.9817
93.7037
87.2213
83.8654
96.2164
166.753
93.9664
86.2708
100.766
95.9286
92.4548
90.2688
91.1968
92.8387
90.7996
98.015
93.7055
96.5398
95.4568
95.0335
93.6462
96.4456
95.3103
101.471
95.9709
106.365
98.3191
101.581
97.5006
106.501
97.7446
97.3077
96.322
97.3053
97.3027
96.2127
97.9245
96.1389
97.8211
97.2219
96.8238
96.0567
97.7221
97.1352
96.3137
103.362
111.872
102.574
102.543
102.702
104.842
99.7628
98.4928
104.514
98.9042
98.5092
99.9794
99.6017
97.2838
98.5551
97.2956
98.1787
97.2199
98.5411
97.187
107.629
97.8862
100.892
101.461
99.6453
98.1202
99.6416
99.6048
98.9319
103.163
99.932
98.9407
103.199
99.6412
96.8772
98.4067
95.7079
98.7531
96.7522
98.3994
95.6501
102.922
115.918
99.9883
104.506
102.911
112.374
99.5311
98.7943
99.4823
102.214
100.918
99.4715
101.995
99.1826
95.6277
97.0103
94.9066
98.0765
95.6223
96.999
94.9132
90.6351
91.1948
106.09
107.355
89.0698
165.291
127.445
92.421
95.3543
85.1177
97.7745
95.3383
86.778
92.0204
94.7436
96.5246
95.1799
96.4835
94.7515
96.4138
95.1788
111.204
108.991
108.674
99.5289
145.177
125.915
109.953
99.5884
97.5743
108.001
100.028
97.6124
102.662
99.5979
95.5537
99.7348
96.4424
97.1892
95.5625
99.7374
96.4522
106.846
102.506
99.9395
109.815
108.489
102.598
101.043
102.669
103.612
104.618
106.048
102.62
104.553
103.655
96.4947
98.7775
96.03
99.7656
96.4946
98.7307
96.0297
100.341
99.9786
98.423
100.69
100.868
102.001
98.3445
98.9403
99.8986
99.2108
100.424
98.8794
99.9211
99.206
95.5625
96.7373
94.855
98.2382
95.5621
96.733
94.8551
95.13
106.999
97.3389
112.816
94.2972
211.147
120.669
94.7698
95.871
97.7824
95.9432
95.0672
95.9218
96.7265
94.3435
94.9753
93.7012
96.2046
94.3433
94.9658
93.7005
80.8508
90.0656
100.691
135.703
87.0033
99.0726
101.306
97.0384
92.3383
103.722
91.3966
95.6483
92.1503
93.1878
93.6419
96.4283
95.2947
95.1414
93.6417
96.4466
95.2921
104.956
97.4249
106.731
102.087
95.5115
97.4971
103.799
97.9528
97.2634
97.5148
98.5565
97.9192
97.4064
98.9239
96.0582
97.841
97.1219
96.7421
96.0537
97.7923
97.1201
103.269
103.218
99.8898
102.842
100.53
102.777
107.353
99.2924
98.6376
101.349
99.0371
99.3352
98.705
100.954
97.2104
98.5663
97.1969
98.0121
97.2104
98.5913
97.1831
99.5505
110.526
107.075
101.895
99.4578
104.042
98.9993
99.6646
98.9335
107.472
100.27
99.6331
98.9142
107.266
96.7439
98.4209
95.6459
98.7269
96.7478
98.4053
95.6457
102.949
110.293
101.866
104.375
103.055
116.683
99.7548
98.7157
99.4488
101.011
100.407
98.8077
99.4368
100.886
95.6223
97.0014
94.9107
98.077
95.6234
97.0013
94.9104
88.8254
105.992
101.404
111.851
94.9893
103.049
98.5526
96.5974
95.4151
105.326
99.074
96.5727
95.5286
107.899
94.7501
96.4117
95.1802
96.4933
94.7501
96.3737
95.1826
86.827
117.757
109.075
100.444
91.5983
113.687
106.366
99.5642
97.6741
101.577
95.5248
99.5695
98.0759
101.331
95.5614
99.7328
96.4517
97.203
95.5612
99.7342
96.4518
106.094
102.632
100.179
108.2
106.018
102.369
100.216
102.69
103.879
104.513
106.092
102.62
104.484
103.956
96.4955
98.731
96.0307
99.7857
96.4855
98.8386
96.0209
100.767
101.135
98.2748
101.488
100.322
106.509
100.236
99.16
99.8542
99.1982
100.39
99.053
100.051
99.1741
95.5631
96.7278
94.8584
98.3686
95.554
96.6954
94.8524
93.9238
131.667
98.0015
97.8812
94.6469
136.706
95.1454
94.8463
95.9446
94.2653
95.8053
94.8879
95.9452
94.3108
94.3451
94.9813
93.7012
96.1775
94.3376
94.9971
93.7077
86.1796
101.503
98.1447
39.3499
86.8189
170.983
97.6324
93.5103
92.0774
93.0323
91.234
92.8581
91.9659
91.4154
93.6458
96.4464
95.3094
95.0076
93.7061
96.511
95.4146
129.533
98.1144
103.885
106.988
113.7
98.1663
103.098
97.8553
97.3415
99.0111
98.359
97.8581
97.3691
100.012
96.0467
97.8126
97.1324
96.7836
96.1668
97.833
97.2213
102.05
104.046
101.212
104.825
100.852
105.428
102.455
99.2365
98.7862
100.496
98.7472
99.2439
98.7913
101.847
97.2189
98.641
97.1976
98.0476
97.2847
98.6279
97.2812
99.4727
104.007
99.6279
100.923
99.4278
106.053
99.2393
99.6064
99.1208
100.007
98.3584
99.7363
99.1209
100.976
96.7578
98.4198
95.6494
98.722
96.8808
98.432
95.7076
103.381
129.99
103.783
100.77
105.773
117.045
102.04
99.0152
99.4094
102.159
100.323
98.9098
99.4487
101.706
95.6235
96.9998
94.9128
98.1127
95.6298
97.011
94.9056
135.329
100.119
99.4787
105.164
118.3
98.0574
108.132
94.384
95.6198
110.687
98.2752
95.7017
95.7434
97.5837
94.7517
96.3775
95.1831
96.4325
94.7432
96.5019
95.1822
91.7655
147.526
112.935
96.3944
99.7523
123.213
110.44
99.6441
97.8179
102.815
95.4279
99.6084
98.0491
99.3612
95.562
99.737
96.4524
97.2833
95.553
99.73
96.4426
101.851
102.466
101.676
101.758
101.635
101.834
102.477
100.237
112.659
99.7854
102.167
104.34
99.4902
102.476
100.693
99.8332
99.9751
99.7649
99.8453
99.9788
100.713
102.569
106.285
103.573
111.168
101.837
102.538
103.45
101.858
101.744
102.469
101.564
101.599
101.863
102.477
100.752
106.702
104.603
99.266
104.355
99.4737
104.035
100.711
99.7663
99.7692
99.9789
99.8288
99.979
100.685
98.44
99.3571
98.3769
99.2485
99.3608
98.3948
98.4333
98.3851
98.5034
97.0973
97.4568
98.4454
97.1272
98.7271
97.8212
97.6959
97.0117
96.9952
97.7063
97.0113
97.8099
98.8118
100.641
99.9124
99.2101
99.9362
99.1992
98.8328
98.4429
99.2586
99.3589
98.4083
99.3611
98.4046
98.4345
98.3839
97.4142
98.4075
97.0924
98.3823
97.0669
98.4239
97.779
96.9934
97.7123
97.0256
97.7102
97.051
97.7602
95.3288
96.0062
95.6142
96.2
96.0175
95.5898
95.318
93.6803
93.1388
93.2967
92.5281
93.3662
93.2766
93.7101
94.6727
95.1079
94.0436
94.6233
95.0892
94.0417
94.7009
94.7852
95.7445
95.857
94.4588
95.8389
94.498
94.7791
95.3483
96.1999
96.0226
95.5919
96.0541
95.6315
95.339
93.8349
92.5194
92.9758
93.2457
92.6446
93.2683
93.6003
94.7159
94.7886
95.0364
94.0239
95.0514
94.0516
94.6501
94.016
93.6442
94.8115
94.2468
93.821
94.8598
94.0467
93.8563
96.9318
95.8606
94.9514
96.9478
95.7903
93.8691
94.367
94.9359
95.8504
96.2096
94.964
95.8425
94.3756
96.072
91.8065
92.0948
90.9551
93.1499
90.6536
95.6976
93.9463
94.2689
93.6806
94.7765
93.4586
94.7853
94.0009
93.9057
95.0412
96.8684
95.8103
96.8303
95.7889
93.8556
94.3135
96.2167
94.943
95.8356
95.0833
95.851
94.3006
97.3387
96.6481
97.339
96.6326
96.6039
97.3518
97.4791
98.1868
102.257
98.1898
98.2343
98.8227
98.1939
98.3594
97.6234
97.5482
98.2503
97.8845
97.5301
98.0819
97.6527
97.7516
101.797
97.3215
97.7804
97.2991
96.1488
98.316
97.3045
96.7448
96.5948
97.2437
96.6356
97.5138
97.3299
98.1536
99.1647
98.8746
98.186
98.8332
98.1916
98.1601
97.6182
98.0246
97.5042
98.0823
97.7015
98.0444
97.6304
99.0739
98.195
98.5576
98.1596
98.1822
98.5688
99.1341
99.2837
104.198
99.3565
99.2467
105.054
99.1522
99.2889
99.0868
98.5896
98.9873
98.7456
98.5842
99.128
99.0973
99.3937
99.0666
98.574
100.912
98.5118
99.9916
99.3607
99.0776
98.3584
98.209
98.5808
98.1961
98.6805
99.0898
99.3077
101.556
103.848
99.1682
103.004
99.1791
99.1611
99.0685
98.7246
98.5851
98.9235
98.5806
99.2671
99.0781
99.2609
99.1262
98.8794
98.8581
98.902
98.8898
99.1999
99.3303
101.774
99.376
100.4
102.8
99.5909
99.3544
99.0169
99.0318
99.0155
98.6714
99.0467
99.0719
99.1571
99.644
100.161
99.02
102.524
99.0331
102.545
99.5614
99.265
98.7953
98.7332
98.8706
98.7841
98.8889
99.1752
99.5653
99.8576
102.992
99.4546
102.379
99.8792
100.356
99.1716
98.6789
99.0397
99.0956
99.0497
99.1306
99.1273
98.5976
98.7866
98.0591
98.453
98.777
98.062
98.7065
98.1624
97.0435
96.8079
98.3119
96.961
96.7317
98.2497
97.6977
97.3871
97.2605
96.9767
97.3949
97.2756
97.6745
98.6795
100.848
99.4496
101.064
99.4696
102.021
98.7883
98.3689
98.4597
98.7547
98.0523
98.7517
98.0886
98.3614
97.9046
98.3192
97.002
96.7382
96.9434
96.7287
97.7344
97.6643
96.9795
97.4023
97.2691
97.4002
97.2983
97.659
95.5162
96.5948
96.0777
96.3363
96.5883
96.0853
95.6894
93.5555
93.5616
95.0388
95.0829
90.9513
95.0552
93.7362
95.1308
95.6791
96.3504
96.3378
95.6002
96.3564
95.9461
92.3259
98.2535
95.3728
108.892
95.3297
90.7025
96.5187
95.5176
96.3347
96.5834
96.0857
96.5849
96.0849
95.4785
93.8682
95.9543
90.5892
96.9332
90.827
95.5405
93.7568
95.1802
96.3567
95.6734
96.3524
95.6303
96.3566
95.1815
99.1582
97.6773
98.9132
98.0871
97.6801
98.9234
99.1529
103.926
108.951
103.009
106.072
102.779
103.841
103.057
102.019
101.566
102.004
101.397
101.556
102.01
102.016
99.5543
98.2978
97.7885
102.898
97.4883
104.185
99.5717
99.1587
98.1027
97.6662
98.936
97.6756
98.9312
99.1587
103.693
129.111
109.844
102.835
130.566
103.707
102.897
102.019
101.354
101.548
102.022
101.551
102.015
102.023
101.874
102.468
101.538
101.719
101.869
101.526
102.469
100.93
104.324
99.7477
101.095
104.968
103.998
102.217
100.697
99.819
99.9735
99.7996
100.694
99.7951
99.961
102.414
106.001
103.827
104.604
104.693
102.908
103.719
101.88
101.717
102.473
101.556
101.532
101.884
102.471
107.368
100.632
108.264
101.59
103.829
101.39
102.752
100.701
99.806
99.807
99.9513
99.9599
99.9532
100.664
98.4359
99.3603
98.412
99.2722
98.433
99.3617
98.4157
98.4541
98.4219
97.1143
97.3923
98.4725
98.43
97.0834
97.7838
97.7131
97.002
96.9935
97.7701
97.7123
97.0098
98.9702
100.381
99.895
99.1772
99.8897
99.195
98.9846
98.437
99.2805
99.3681
98.4184
99.3647
98.4184
98.4406
98.5135
97.3878
98.44
97.0986
98.4741
97.0869
98.4868
97.7618
96.9949
97.712
97.0099
97.7121
97.008
97.7602
95.3165
96.0354
95.6073
96.1936
95.3461
96.0209
95.5825
93.6203
92.6505
93.2229
92.4572
93.6201
92.5971
93.5021
94.7479
95.1326
94.0588
94.5767
94.7354
94.9947
94.0951
94.8061
95.7261
95.9335
94.8482
95.9231
96.2899
94.8237
95.3312
96.1933
95.989
95.5572
95.9992
95.5719
95.3071
93.5747
95.7262
93.7611
93.6598
92.6294
93.4486
93.5563
94.755
94.5832
94.9759
94.2276
94.9967
94.0694
94.7216
93.9394
93.6993
94.774
94.246
93.9769
93.6098
94.7595
93.9626
97.0804
95.833
95.149
94.1103
98.3866
95.8713
94.2785
94.9573
95.8354
96.0227
94.3154
94.9235
95.8375
96.9178
91.1387
92.0405
94.9635
92.0409
96.8042
92.5993
93.916
94.2378
93.5632
94.6915
93.5732
94.7234
93.9207
93.9482
95.3268
103.593
95.8964
103.243
95.916
94.0404
94.2717
96.1378
94.9144
95.8634
94.9433
95.8483
94.3011
97.347
96.6058
97.2625
96.6251
97.3429
96.6396
97.2534
98.1767
98.942
98.1861
98.6976
98.1696
99.0919
98.1734
97.6365
97.5242
98.0928
97.88
97.6197
97.5049
98.0691
97.9632
104.389
97.3167
99.0438
97.4859
102.525
98.0255
97.3329
96.6279
96.5686
97.3926
96.5851
97.257
97.4061
98.1863
98.9575
99.1945
98.178
99.2292
98.1677
98.1896
97.6146
97.8778
97.4956
98.1161
97.4895
98.069
97.6254
99.1112
98.2143
98.568
98.1815
99.0933
98.2125
98.5564
99.3337
104.004
99.0987
98.489
100.097
102.564
99.0682
99.0336
98.565
98.8921
98.7514
99.0468
98.5714
98.8772
99.2719
98.9713
98.7751
100.772
98.7507
100.951
99.2564
99.1038
98.1852
98.233
98.5592
98.2267
98.5876
99.1145
99.4633
101.539
105.47
99.0375
103.448
99.0541
99.4077
99.0294
98.7292
98.5788
98.8973
98.5637
98.8872
98.9972
99.1896
98.7887
98.8829
98.8484
99.2085
98.819
98.8729
99.5367
102.755
99.2921
100.028
99.9938
102.593
99.4124
99.1315
99.0433
99.1005
98.6628
99.1326
99.0538
99.1129
99.6491
100.012
98.9554
99.5588
98.9172
99.6542
99.7855
99.1926
98.7279
98.7679
98.8761
98.8246
98.8912
99.2048
99.5345
99.9409
102.349
99.4046
103.233
99.381
100.423
99.1647
98.6658
99.0298
99.1835
99.0512
99.1231
99.1506
98.3783
98.7595
98.0703
98.4555
98.3761
98.7734
98.0844
97.7436
96.9294
96.8003
98.2947
97.7506
96.5819
96.7616
97.6469
97.4325
97.264
96.9881
97.6845
97.5156
97.2811
98.5417
100.426
99.4236
101.016
99.4291
100.857
98.578
98.3446
98.4725
98.7497
98.0987
98.7697
98.1003
98.3791
97.7532
98.0646
96.2845
96.6953
96.3668
96.8246
97.9383
97.7666
96.992
97.4135
97.2867
97.4153
97.2995
97.8017
96.1315
96.5698
96.0898
96.3358
95.7089
96.5944
96.0912
95.1765
91.5734
96.0821
95.089
93.8024
92.1164
96.2735
95.1665
95.664
96.3548
96.4189
95.1713
95.6659
96.3525
98.9633
98.0111
95.5526
120.355
95.4621
106.325
100.737
95.5746
96.3368
96.5932
96.0977
96.6186
96.0962
96.1672
92.8142
94.9016
94.0264
96.098
100.926
96.4175
92.9635
95.1751
96.4351
95.6628
96.3439
95.6688
96.3485
95.161
99.1587
97.6537
98.944
98.0942
99.1592
97.6441
98.9514
103.631
109.381
102.762
106.711
103.628
108.858
102.708
102.001
101.546
102.012
101.297
102.01
101.544
102
99.5588
95.4441
97.8865
100.341
97.8603
101.058
99.563
99.157
98.0917
97.6469
98.9518
97.6436
98.9542
99.1548
103.66
105.476
108.377
102.726
108.33
103.606
102.681
101.985
101.295
101.513
101.971
101.538
101.965
101.986
101.882
102.471
101.583
101.745
101.885
101.607
102.468
99.4742
99.9098
101.218
100.687
102.651
100.096
100.791
100.684
99.7589
99.9505
99.8299
100.658
99.7927
99.9449
102.696
106.317
103.931
104.604
104.646
102.704
103.935
101.877
101.764
102.454
101.675
101.638
101.862
102.464
99.4649
100.821
101.808
100.614
100.262
100.473
99.5369
100.697
99.8209
99.7366
99.945
99.7343
99.9453
100.686
98.4539
99.3681
98.4184
99.2633
98.4438
99.3677
98.4119
98.4615
98.485
97.1024
97.403
98.4612
98.4314
97.1174
97.7575
97.7119
96.9984
96.9956
97.7536
97.7089
97.0072
98.9993
100.375
99.9429
99.2332
99.9844
99.1831
99.0397
98.4632
99.2441
99.3673
98.3856
99.3673
98.4005
98.4616
98.4883
97.5374
98.6306
97.26
98.6284
97.0917
98.776
97.7812
96.9953
97.6931
97.0386
97.7043
97.0085
97.8002
95.3186
95.9742
95.5883
96.189
95.3106
95.9803
95.5709
93.5329
94.5889
93.4674
92.2929
93.5729
92.7342
93.5552
94.6698
94.9665
94.0756
94.6211
94.7092
94.9571
94.1197
94.8664
95.8031
95.9661
94.2776
95.9461
94.2882
94.8783
95.369
96.1878
95.9881
95.5658
95.9931
95.5706
95.357
93.5484
92.4962
93.1452
93.2143
92.6065
93.0708
93.5005
94.6808
94.6172
94.9215
94.0783
95.0034
94.0715
94.6762
93.9039
93.5573
94.7639
94.2466
93.9238
93.6807
94.6815
93.4349
100.179
95.8834
95.5062
93.2054
99.7719
95.8813
94.2697
94.9329
95.8839
96.0714
94.2826
94.9253
95.8858
89.9275
90.9813
91.9663
91.5466
91.9464
91.3944
90.0406
93.9098
94.2456
93.7141
94.6868
93.6137
94.6819
93.9185
95.0961
95.4261
108.324
95.8882
98.9915
95.8748
94.1158
94.2639
96.0894
94.9058
95.9063
94.8972
95.9111
94.276
97.3469
96.661
97.4611
96.6089
97.3392
96.6571
97.2944
98.2488
99.7065
98.1528
97.9726
98.1981
99.3123
98.1591
97.6514
97.5646
98.0652
97.8908
97.6188
97.5042
98.0678
97.8647
98.5176
97.4998
99.6662
97.3893
99.0022
98.0199
97.4855
96.5931
96.6355
97.3607
96.6312
97.2955
97.3891
98.2221
98.0304
99.314
98.1726
99.1589
98.199
98.248
97.6615
97.8993
97.5405
98.0731
97.5068
98.0635
97.6575
99.1198
98.2355
98.5795
98.1896
99.0978
98.2382
98.5637
99.3948
101.328
99.086
98.7204
99.2521
101.069
99.1275
98.9725
98.5713
98.921
98.7511
98.9826
98.5748
98.8919
99.2515
98.7782
98.9072
100.95
98.8044
100.885
99.259
99.1883
98.1935
98.2724
98.5891
98.2413
98.566
99.1596
99.2123
106.079
101.466
99.1549
101.028
99.1283
99.2373
98.9713
98.7265
98.5918
98.8938
98.5784
98.886
98.9832
99.2367
98.8099
98.8767
98.8811
99.2331
98.8356
98.8801
101.751
102.451
99.4608
99.8367
100.228
103
99.3184
99.1203
99.0194
99.1202
98.6679
99.3137
99.0381
99.1128
99.4191
98.2921
99.3969
99.5855
99.186
99.4117
100.056
99.2506
98.9151
98.9687
98.8996
98.8623
98.8884
99.2848
100.514
99.8474
102.581
99.4554
103.276
99.304
100.122
99.11
98.6775
99.0393
99.133
99.0473
99.1107
99.2648
98.366
98.7597
98.1004
98.4552
98.3734
98.7644
98.1689
98.2646
117.947
96.7005
106.595
98.0981
109.316
96.704
97.9956
97.4217
97.2882
96.9957
97.8568
97.4537
97.3072
98.6083
100.315
99.3533
102.418
99.3587
102.551
98.9199
98.3695