/*--------------------------------*- C++ -*----------------------------------*\
| =========                 |                                                 |
| \\      /  F ield         | OpenFOAM: The Open Source CFD Toolbox           |
|  \\    /   O peration     | Version:  5.0                                   |
|   \\  /    A nd           | Web:      www.OpenFOAM.org                      |
|    \\/     M anipulation  |                                                 |
\*---------------------------------------------------------------------------*/
FoamFile
{
    version     2.0;
    format      ascii;
    class       surfaceScalarField;
    location    "3.1";
    object      phi;
}
// * * * * * * * * * * * * * * * * * * * * * * * * * * * * * * * * * * * * * //

dimensions      [0 3 -1 0 0 0 0];

internalField   nonuniform List<scalar> 
25543
(
4.02936e-10
-3.35757e-09
-3.80033e-10
1.05987e-09
-2.6453e-09
-4.02667e-09
1.08807e-09
2.95491e-09
-3.521e-09
4.77535e-10
1.15063e-09
1.44393e-09
3.86191e-10
-1.94541e-09
3.86743e-09
3.31901e-09
-2.76528e-09
1.50789e-09
6.94872e-10
5.3848e-10
9.4689e-10
-1.42225e-09
8.31576e-10
3.85212e-10
2.55668e-10
-1.47286e-09
-7.51411e-11
3.04591e-12
3.51136e-11
3.75623e-11
1.44617e-09
2.56708e-11
-3.9498e-11
-2.85144e-10
-2.65136e-10
-4.84948e-10
-4.42231e-10
1.40235e-09
1.54552e-11
-1.01642e-12
1.39204e-09
-6.78522e-13
-4.98714e-14
1.3885e-09
-2.6854e-12
-3.25093e-14
1.38936e-09
-3.03337e-12
-1.5745e-13
1.39137e-09
-2.50678e-12
4.15759e-14
1.3911e-09
-2.29326e-12
-4.20326e-13
1.39213e-09
-1.56762e-12
1.00625e-13
1.39249e-09
8.28597e-13
-6.39543e-13
1.39337e-09
-7.37748e-13
-3.18391e-14
1.39276e-09
-3.98145e-13
-6.22576e-13
1.39324e-09
-5.59954e-13
-1.14422e-14
1.39334e-09
-1.8349e-13
-2.71271e-13
1.39368e-09
-1.12075e-13
7.95414e-13
1.39416e-09
-5.29564e-13
-2.85961e-13
1.39377e-09
2.93575e-13
5.83387e-14
1.39375e-09
-2.20062e-13
4.92131e-14
1.39374e-09
3.78932e-14
5.18267e-14
1.39397e-09
1.68749e-13
-2.60605e-13
1.39393e-09
1.42894e-13
-1.33442e-13
1.39392e-09
-1.01472e-13
-2.36772e-14
1.39384e-09
-2.91006e-13
-1.08555e-12
1.39377e-09
1.8496e-13
6.02985e-13
1.39336e-09
-7.38989e-13
4.41364e-12
1.39358e-09
-8.23455e-13
2.74444e-12
1.39346e-09
-6.27868e-13
2.60785e-13
1.39433e-09
-1.69912e-12
4.9775e-13
1.39405e-09
5.82791e-14
6.80535e-14
1.3939e-09
2.34287e-13
-7.04952e-14
1.39335e-09
4.70373e-13
1.61575e-13
1.39304e-09
6.80714e-13
-5.20805e-13
1.39529e-09
-3.91787e-12
1.02361e-12
1.39445e-09
4.56124e-13
2.0288e-13
1.39421e-09
1.05708e-13
-1.36002e-13
1.39452e-09
-1.88277e-14
-1.56498e-13
1.39504e-09
-6.12452e-13
1.60302e-13
1.39344e-09
4.23909e-12
-1.95868e-12
1.39364e-09
-4.53265e-13
1.27365e-13
1.39353e-09
2.64496e-13
-1.28691e-13
1.39466e-09
-1.00208e-12
-1.96792e-13
1.39433e-09
2.18551e-13
1.39535e-13
1.39376e-09
-4.57336e-13
8.35358e-13
1.32999e-12
-1.19053e-12
2.18823e-09
1.52306e-09
-5.68006e-09
2.26732e-09
2.04328e-09
-4.76784e-09
6.35538e-10
3.8262e-09
7.60376e-10
2.06774e-10
-2.61891e-09
-2.63855e-09
-2.02426e-09
3.30856e-09
-1.56231e-09
1.28504e-09
5.40671e-10
1.64657e-09
2.49196e-09
-1.17984e-09
3.3554e-09
-4.8441e-10
-1.7494e-10
-4.50744e-10
-2.85898e-10
-5.72784e-10
4.76644e-10
-2.61488e-10
2.58036e-10
-3.03656e-11
-4.42826e-10
-1.15934e-10
5.10671e-14
-2.00351e-12
8.50786e-11
3.28077e-11
1.40517e-09
9.58204e-12
-3.36388e-11
-2.51706e-10
-2.50155e-10
-4.24361e-10
-4.32131e-10
5.25948e-13
7.1249e-12
-4.72446e-12
1.38654e-09
3.52171e-11
-1.10867e-12
1.38812e-09
-1.92616e-12
-3.25858e-13
1.3888e-09
-3.34175e-12
-5.47612e-14
1.39042e-09
-4.63246e-12
-4.08144e-14
1.3917e-09
-3.78814e-12
-1.33292e-14
1.39231e-09
-2.92063e-12
-7.62212e-15
1.39269e-09
-1.99183e-12
1.12111e-14
1.39373e-09
-1.21213e-12
9.69652e-13
1.39386e-09
-8.64315e-13
-4.59396e-14
1.39338e-09
7.03519e-13
-6.44297e-13
1.39317e-09
2.75921e-12
-3.13779e-12
1.39335e-09
-4.36258e-13
5.4181e-14
1.39415e-09
-1.14186e-12
2.17779e-13
1.39373e-09
-9.99193e-14
-1.98264e-14
1.39389e-09
1.53594e-13
-2.7882e-14
1.39367e-09
7.99942e-14
-8.31888e-14
1.39385e-09
2.28586e-15
-1.50668e-13
1.39377e-09
-1.51365e-15
2.61832e-13
1.39389e-09
1.18665e-14
1.05264e-14
1.39411e-09
-3.39255e-13
2.83583e-14
1.39328e-09
-1.17014e-12
1.72204e-12
1.39304e-09
-7.5261e-13
1.18246e-12
1.39343e-09
8.91721e-14
-1.21047e-12
1.39356e-09
5.62847e-13
-1.5041e-12
1.39492e-09
-4.75471e-12
2.783e-12
1.39428e-09
-2.33896e-12
1.28592e-12
1.39419e-09
2.75594e-13
-1.11091e-13
1.39428e-09
1.13167e-13
3.59784e-14
1.39455e-09
3.06488e-13
-1.01847e-13
1.3949e-09
2.00743e-13
1.40483e-13
1.39294e-09
-1.35115e-12
-5.98869e-13
1.39353e-09
2.30461e-13
-3.52405e-13
1.39377e-09
-1.71881e-13
4.07132e-14
1.39389e-09
-1.6676e-13
3.91751e-14
1.39295e-09
2.38942e-13
8.96712e-14
1.39481e-09
3.844e-13
1.99763e-12
1.39437e-09
2.46824e-14
-3.4243e-14
1.39438e-09
1.68926e-13
8.78881e-14
1.39399e-09
-1.66886e-12
1.06102e-12
1.39385e-09
4.20331e-13
-5.42979e-14
1.39417e-09
1.62258e-13
-9.40839e-13
-1.89995e-13
1.24317e-12
2.33635e-08
3.6921e-09
-2.41437e-08
4.84497e-09
-4.38728e-10
2.10005e-08
6.87073e-09
3.72306e-09
5.59807e-08
3.48551e-09
3.82349e-09
6.69188e-10
5.67838e-08
-5.28314e-08
-6.98339e-08
5.70067e-09
-3.71238e-09
4.2989e-09
4.1798e-09
2.84961e-10
2.14389e-09
-8.29048e-11
1.71647e-09
-5.87619e-10
-1.72692e-08
-1.16676e-08
1.9248e-08
-4.87223e-09
3.70629e-09
4.26572e-09
2.60092e-09
-3.1962e-10
1.04306e-10
-3.85734e-11
6.67374e-10
-4.13487e-10
-1.99835e-11
-1.57187e-11
1.44884e-11
-9.75186e-11
1.18732e-10
-2.93931e-11
1.78081e-10
-4.51192e-12
-3.81969e-13
-2.87879e-11
-5.28053e-11
-5.2617e-11
1.3459e-09
-4.66457e-11
-1.87407e-11
-2.32427e-10
-2.37769e-10
-3.79968e-10
-3.95117e-10
1.37362e-09
-2.7728e-11
-1.9122e-12
1.38576e-09
-1.62091e-11
6.93266e-13
1.39086e-09
-9.79511e-12
2.60878e-14
1.39303e-09
-6.048e-12
6.75297e-14
1.39376e-09
-3.70226e-12
3.2577e-14
1.3939e-09
-2.19468e-12
3.10497e-14
1.39392e-09
-1.29733e-12
2.6551e-14
1.3939e-09
-9.47692e-13
7.86231e-14
1.39469e-09
-1.26989e-12
1.15026e-12
1.39379e-09
5.87277e-13
3.04922e-12
1.39384e-09
-4.346e-13
-7.24362e-14
1.39365e-09
-6.06694e-13
-3.56819e-13
1.39388e-09
-3.59131e-13
1.03391e-14
1.39376e-09
-5.04304e-13
7.78611e-13
1.39382e-09
-2.6447e-13
2.74517e-13
1.39348e-09
-7.15442e-13
1.06165e-12
1.39345e-09
2.12138e-13
-1.78931e-13
1.39349e-09
1.4323e-13
-1.67095e-13
1.39309e-09
-7.5781e-14
1.49015e-13
1.39362e-09
7.75325e-13
-2.47373e-12
1.39484e-09
1.16271e-12
-3.11976e-12
1.39448e-09
4.86262e-13
-3.27754e-14
1.39548e-09
5.86182e-13
-1.00718e-12
1.39372e-09
-1.53218e-13
-2.82876e-12
1.39362e-09
2.39111e-13
-2.47599e-12
1.39378e-09
1.19161e-14
1.18471e-13
1.39399e-09
-1.38778e-13
4.62443e-14
1.39417e-09
1.45605e-13
-2.51353e-15
1.39402e-09
-6.36858e-15
3.65204e-13
1.39345e-09
-3.08825e-13
-4.71068e-13
1.39379e-09
-5.87112e-14
-4.18353e-14
1.39356e-09
1.47363e-13
-8.32135e-14
1.39373e-09
-2.0816e-13
-1.18402e-13
1.39398e-09
-1.92215e-12
1.91395e-12
1.39486e-09
-1.7364e-12
1.24735e-12
1.39454e-09
1.42173e-14
3.29989e-13
1.39449e-09
-9.68549e-15
2.31285e-13
1.39382e-09
-6.97549e-14
-9.20644e-13
1.39369e-09
5.74756e-13
-2.47303e-14
1.39352e-09
2.69697e-13
6.49827e-14
-1.85502e-12
8.17794e-13
6.82332e-09
-7.8271e-10
-1.37797e-09
4.97841e-10
-1.06695e-09
9.87446e-10
4.66656e-09
1.81109e-09
6.48167e-09
1.45641e-08
5.7663e-09
-3.19843e-08
5.0497e-09
3.17435e-09
-1.62226e-09
-1.36548e-09
1.80732e-09
-1.96507e-09
3.10591e-09
3.06031e-09
2.22341e-09
8.48083e-09
-1.84325e-09
-3.55656e-10
-9.99427e-09
6.19221e-09
1.20457e-08
4.85633e-09
6.89465e-09
-2.19222e-07
-4.36948e-08
5.05279e-08
1.82398e-07
-1.48168e-10
8.88988e-10
-2.82322e-10
-9.03433e-11
-3.68154e-10
9.24957e-11
5.77922e-11
-1.03382e-10
-4.53666e-11
-1.53945e-12
-3.2466e-11
1.84886e-10
2.66754e-11
-3.4781e-11
-5.80563e-11
-6.26335e-11
1.29228e-11
-5.8804e-12
-1.21139e-11
-1.23513e-11
-6.20239e-12
1.38453e-09
-8.43239e-11
-2.37293e-11
-2.41205e-10
-2.5323e-10
-3.96953e-10
-4.31734e-10
1.39573e-09
-3.70671e-11
-1.8957e-12
1.39813e-09
-1.92281e-11
5.77524e-13
1.39799e-09
-9.68247e-12
-2.43209e-16
1.3973e-09
-5.45709e-12
6.93823e-14
1.39642e-09
-2.87902e-12
2.41733e-14
1.39553e-09
-1.34008e-12
9.90037e-15
1.39488e-09
-6.85625e-13
-5.23108e-15
1.39444e-09
-5.34617e-13
-3.32003e-15
1.39388e-09
-2.31212e-13
-5.01115e-13
1.3943e-09
1.58529e-14
1.3375e-13
1.39413e-09
-2.92253e-13
6.06773e-15
1.394e-09
-5.71727e-13
7.72375e-14
1.39394e-09
-3.33169e-13
2.7778e-14
1.39371e-09
1.303e-12
-1.58256e-12
1.39371e-09
6.17974e-14
-3.36573e-13
1.39389e-09
1.52997e-13
-1.05048e-12
1.39394e-09
3.36259e-13
-1.62533e-13
1.3939e-09
3.32678e-14
1.54455e-13
1.39409e-09
7.76995e-13
-1.03339e-12
1.39459e-09
1.01534e-12
-7.31903e-13
1.39373e-09
8.49991e-14
1.95012e-12
1.39381e-09
5.01424e-13
-9.46488e-14
1.39389e-09
5.76203e-13
-5.71692e-14
1.39382e-09
-1.00601e-13
3.23099e-14
1.39393e-09
6.98497e-14
7.11093e-14
1.39414e-09
-1.21661e-13
-7.1258e-14
1.39399e-09
2.5108e-14
8.02214e-16
1.39413e-09
-1.05987e-13
1.18731e-13
1.39418e-09
-1.74139e-13
1.22631e-13
1.39386e-09
-3.46362e-13
3.68056e-13
1.39352e-09
5.62824e-13
-2.75608e-13
1.39346e-09
1.27468e-13
8.38998e-14
1.39483e-09
9.5066e-13
-2.52212e-12
1.39436e-09
4.30788e-13
-1.87741e-12
1.39392e-09
2.14199e-13
-1.50753e-12
1.39424e-09
1.43354e-13
-4.44504e-13
1.39448e-09
-2.65984e-14
-2.19446e-13
1.39439e-09
1.40703e-12
-1.37995e-12
1.39323e-09
1.70126e-12
3.63331e-14
1.39353e-09
-3.27115e-14
2.52749e-15
-2.0366e-12
4.37044e-13
2.84667e-09
-1.44576e-09
-1.99265e-09
-1.83203e-09
2.56864e-09
3.13561e-09
-2.06113e-09
-1.51666e-09
-1.88774e-09
-4.55868e-09
-5.42408e-09
-3.33749e-08
1.37785e-09
9.45609e-08
-4.91766e-08
-4.71907e-09
6.0547e-10
5.67911e-09
-1.97662e-09
-3.93267e-09
-1.67812e-08
1.91656e-08
1.95798e-09
3.36907e-09
-1.40716e-09
-2.67836e-09
3.1562e-10
4.00834e-10
-9.01333e-11
-6.05477e-10
3.64878e-11
-1.00417e-10
7.59539e-10
-1.11537e-10
2.01367e-11
-1.91014e-11
-3.27755e-11
1.43277e-10
-6.50347e-11
5.7274e-12
-7.36875e-12
3.75248e-11
2.91513e-11
1.46657e-09
-1.11638e-11
-3.48233e-11
-2.73976e-10
-2.80388e-10
-4.68968e-10
-4.81589e-10
1.43454e-09
-3.37841e-12
-1.69612e-12
1.41658e-09
-1.47269e-12
1.67173e-13
1.40665e-09
3.25887e-13
-1.01714e-13
1.4024e-09
-1.81387e-12
5.76315e-13
1.39953e-09
-5.45224e-14
4.50787e-15
1.39676e-09
2.15611e-12
-7.72272e-13
1.39511e-09
1.8764e-12
-9.54255e-13
1.39475e-09
-2.00712e-13
-8.71226e-15
1.39423e-09
2.54271e-13
1.39803e-14
1.39382e-09
2.07382e-13
2.05806e-13
1.39416e-09
3.26583e-13
-9.77077e-13
1.39393e-09
-3.64458e-13
1.03029e-14
1.39406e-09
-7.29672e-13
2.55842e-13
1.39415e-09
3.44477e-13
8.59985e-13
1.39418e-09
3.13899e-14
-1.0554e-14
1.39418e-09
3.50318e-13
-1.88543e-13
1.39424e-09
-3.18973e-13
5.9134e-13
1.39426e-09
4.37173e-14
-1.70753e-14
1.39388e-09
1.40283e-13
1.01986e-12
1.39287e-09
7.93494e-13
1.24597e-12
1.39447e-09
-2.16127e-12
6.50661e-13
1.39459e-09
5.31626e-13
-1.37865e-13
1.39369e-09
1.58865e-12
-1.07849e-13
1.39368e-09
1.46455e-13
-2.26418e-13
1.39384e-09
-3.0552e-14
-4.04623e-14
1.39376e-09
-4.41194e-14
8.56232e-15
1.3937e-09
5.70455e-14
3.35841e-14
1.39377e-09
-1.03879e-13
-6.0726e-14
1.3938e-09
-4.16426e-14
-1.50324e-13
1.39389e-09
-1.37578e-13
-2.88905e-13
1.39428e-09
-2.42134e-13
4.14323e-13
1.39456e-09
-3.99097e-13
2.61867e-13
1.39381e-09
-1.79464e-12
3.50102e-12
1.39405e-09
1.76445e-13
1.29928e-14
1.39392e-09
-1.85817e-14
3.71645e-13
1.39429e-09
-3.97824e-13
1.70494e-13
1.3947e-09
-4.76503e-13
4.71558e-14
1.39472e-09
-1.37857e-12
2.76519e-12
1.39326e-09
3.41462e-12
-2.51938e-13
1.39357e-09
-8.88454e-13
5.51207e-13
-2.43546e-13
-8.97995e-13
8.87182e-09
2.16342e-10
-8.40381e-09
-4.93375e-10
4.70706e-10
2.66499e-09
2.4721e-09
2.15516e-09
1.81593e-08
-4.02467e-08
-3.63381e-08
5.06621e-08
2.81448e-09
-3.9168e-09
4.52768e-09
-3.89215e-08
5.33822e-09
8.17446e-08
-4.24013e-08
-2.7565e-09
-1.22139e-09
-1.68745e-09
-3.52993e-09
-1.85032e-09
-9.12738e-10
-3.12241e-09
-1.46465e-09
7.35011e-09
1.04747e-09
1.09673e-09
-1.60182e-09
-3.02311e-10
-2.40069e-10
-1.07809e-10
6.02392e-11
2.36523e-10
5.84715e-10
-7.73668e-10
-8.44455e-11
-6.74649e-11
1.82033e-11
2.28819e-11
1.10825e-10
-6.50341e-11
1.00357e-12
-6.46965e-13
3.21365e-11
3.25409e-11
1.47333e-09
6.85393e-11
-3.53914e-11
-2.82403e-10
-2.78344e-10
-4.83129e-10
-4.73779e-10
1.43799e-09
3.37231e-11
-1.79284e-12
1.4179e-09
1.84834e-11
1.0151e-13
1.40816e-09
1.02658e-11
-2.34852e-13
1.40124e-09
5.62183e-12
-5.53978e-13
1.39772e-09
3.39132e-12
1.48461e-14
1.3967e-09
2.33215e-12
7.90439e-13
1.39606e-09
1.49903e-12
9.62627e-13
1.39497e-09
8.45966e-13
1.40567e-14
1.39452e-09
5.09903e-13
1.78783e-13
1.3945e-09
3.89163e-13
-1.75228e-13
1.39277e-09
8.82089e-13
1.15345e-12
1.39541e-09
-6.70335e-12
3.69357e-12
1.39424e-09
7.542e-13
-3.28966e-13
1.39406e-09
5.04049e-13
8.09269e-15
1.39373e-09
1.03018e-13
2.62378e-13
1.39346e-09
9.08982e-15
6.0997e-13
1.39464e-09
1.21584e-12
-2.71769e-12
1.39463e-09
8.86436e-14
-2.18769e-14
1.39476e-09
2.81883e-13
-2.62914e-13
1.39514e-09
5.9334e-13
-1.7235e-13
1.39239e-09
4.13444e-12
-3.54072e-12
1.39284e-09
-1.11949e-12
1.21623e-12
1.39389e-09
-2.5854e-14
5.75287e-13
1.39391e-09
9.30691e-15
1.23145e-13
1.39395e-09
2.39237e-13
-2.97051e-13
1.39371e-09
7.6152e-13
-5.58344e-13
1.39384e-09
3.20855e-14
-9.43054e-14
1.39383e-09
-1.26984e-13
4.54838e-14
1.39381e-09
-4.66465e-14
3.27546e-14
1.39394e-09
-7.62626e-13
5.05478e-13
1.39406e-09
2.17903e-13
-5.75973e-13
1.39452e-09
-5.53734e-13
-2.98476e-13
1.39392e-09
-5.04335e-13
-6.8863e-13
1.39404e-09
1.76588e-13
-1.13496e-13
1.39362e-09
3.96878e-13
7.66306e-15
1.39352e-09
-6.62339e-14
-2.23981e-13
1.3933e-09
-1.52342e-13
-9.96053e-14
1.39321e-09
1.34693e-12
-2.63277e-12
1.39525e-09
1.17937e-12
1.96112e-13
1.39491e-09
-4.57214e-13
-9.63557e-14
-7.33908e-13
1.6267e-12
-9.87867e-09
-3.54454e-09
6.60898e-10
-4.00372e-08
-7.29478e-08
1.31395e-07
-5.45758e-09
-1.32966e-09
-5.24957e-10
-3.00745e-10
1.24723e-09
-2.91761e-08
-2.89941e-09
7.41698e-08
-4.11848e-08
-4.40223e-09
-2.38531e-09
5.21617e-09
1.93436e-09
-3.62986e-10
2.89012e-10
-1.21556e-09
2.07199e-10
1.45046e-09
-7.3111e-10
2.6506e-10
-1.20784e-09
1.28056e-09
3.46456e-10
-6.84238e-10
5.26975e-10
4.85258e-10
2.67886e-10
-3.46076e-10
-9.34042e-10
-5.33785e-11
5.13539e-11
-5.72559e-11
-3.50313e-11
9.43117e-11
-4.30872e-11
-2.38125e-12
2.36697e-12
1.3828e-11
2.92734e-11
1.40966e-09
7.2777e-11
-2.76649e-11
-2.66092e-10
-2.52804e-10
-4.51229e-10
-4.16121e-10
1.40586e-09
3.91264e-11
-1.6357e-12
1.4016e-09
2.22977e-11
4.19885e-13
1.39896e-09
1.28983e-11
-3.85836e-14
1.39699e-09
7.52359e-12
2.69967e-14
1.39579e-09
4.51603e-12
1.70593e-14
1.39519e-09
2.82894e-12
4.55613e-14
1.39477e-09
1.85009e-12
1.19838e-14
1.39439e-09
1.18151e-12
8.99392e-15
1.39438e-09
5.82457e-13
-7.50839e-14
1.39479e-09
-1.48551e-13
1.16465e-13
1.39549e-09
1.6885e-13
1.89468e-15
1.39275e-09
-3.19793e-13
-3.65849e-12
1.39352e-09
-3.45461e-14
5.84465e-15
1.39377e-09
1.83623e-13
5.89308e-14
1.39401e-09
1.22606e-13
-2.60649e-13
1.39446e-09
3.49957e-13
-7.8678e-13
1.39343e-09
-2.38571e-13
2.48954e-12
1.3938e-09
-2.6172e-13
-1.72819e-14
1.39439e-09
-3.55025e-13
5.81832e-14
1.39244e-09
5.85663e-12
-3.30477e-12
1.39386e-09
-5.85807e-13
3.30866e-12
1.39417e-09
-3.58967e-13
-1.06115e-12
1.39389e-09
-1.99336e-13
4.60182e-13
1.39394e-09
-8.49963e-14
5.58828e-14
1.39394e-09
-3.7507e-15
2.54397e-13
1.39415e-09
-9.54491e-15
5.69375e-13
1.39408e-09
1.54472e-13
-4.206e-14
1.39396e-09
3.24991e-14
-3.0813e-14
1.39398e-09
-3.2832e-14
-2.12238e-14
1.39354e-09
1.56334e-13
-4.7084e-13
1.39475e-09
8.33845e-13
-1.82581e-12
1.39426e-09
-8.17812e-14
2.95819e-14
1.39377e-09
3.98272e-14
-4.74085e-14
1.39363e-09
8.02012e-13
-4.8267e-13
1.39364e-09
3.11864e-13
8.04302e-14
1.3936e-09
-2.87199e-13
2.64307e-13
1.39342e-09
2.51518e-14
8.63333e-15
1.39384e-09
-7.75568e-13
1.70369e-12
1.39428e-09
6.79564e-13
5.8978e-14
1.39451e-09
-1.09262e-13
-5.76154e-13
-2.3749e-13
-1.10211e-12
-2.76458e-09
6.63633e-09
3.02874e-09
-3.60887e-09
9.53508e-09
-1.49795e-08
2.34359e-09
-2.84022e-09
1.52283e-09
4.63157e-09
-2.88038e-09
-4.33792e-10
3.74956e-09
2.73213e-09
-5.57835e-10
-9.99023e-10
-3.40003e-09
-3.68517e-09
-1.65e-09
5.08053e-09
-1.32018e-09
-1.04677e-10
1.5453e-10
-8.04846e-09
5.86698e-09
3.18304e-09
-2.22543e-10
-5.26951e-10
-1.56569e-10
-1.26471e-10
-4.90374e-11
8.61712e-10
-8.76318e-10
9.46207e-11
1.63277e-09
-6.46128e-09
-2.4598e-09
3.18104e-09
4.10726e-09
-6.60404e-10
4.86681e-11
-5.19135e-12
-3.77451e-11
6.54672e-10
-1.04464e-10
-2.90744e-11
4.74826e-11
-2.22108e-12
8.82768e-11
-3.77867e-11
-1.49776e-11
1.86393e-10
2.47143e-11
1.07144e-11
-3.34687e-11
-7.21526e-11
-6.34364e-11
1.35846e-09
3.32535e-11
-2.55469e-11
-2.48468e-10
-2.38402e-10
-4.14708e-10
-3.91825e-10
1.37664e-09
2.28655e-11
-1.94803e-12
1.38521e-09
1.33109e-11
3.8375e-13
1.38953e-09
8.62863e-12
-8.19012e-14
1.39154e-09
5.46347e-12
2.08617e-14
1.39271e-09
3.29383e-12
1.06156e-14
1.3933e-09
2.16975e-12
1.45666e-14
1.39358e-09
1.50403e-12
6.18985e-15
1.39376e-09
1.8088e-12
-8.49439e-13
1.39428e-09
-2.23774e-13
2.69529e-13
1.39402e-09
-2.21079e-12
2.31128e-12
1.39391e-09
1.51736e-13
1.10294e-13
1.39364e-09
-6.61854e-14
1.12464e-14
1.39374e-09
-3.98727e-13
2.45845e-13
1.39392e-09
9.16855e-15
-1.31571e-14
1.39391e-09
1.2939e-13
7.45466e-15
1.39375e-09
-4.80453e-13
9.87285e-13
1.39346e-09
-3.68576e-13
4.1915e-13
1.39309e-09
1.04813e-13
8.55297e-15
1.39261e-09
1.40728e-13
-9.95458e-16
1.39433e-09
8.09464e-13
3.33546e-12
1.39396e-09
8.28518e-13
-1.04039e-12
1.39482e-09
-3.32847e-12
2.12673e-12
1.39432e-09
3.408e-13
-3.17215e-14
1.39413e-09
-6.62272e-14
1.8067e-13
1.39395e-09
2.10506e-13
-2.83412e-14
1.39404e-09
-1.11747e-13
2.40708e-14
1.39412e-09
4.04039e-13
-3.14278e-13
1.39416e-09
-3.18736e-13
3.16351e-13
1.39389e-09
3.86376e-13
-1.363e-13
1.39445e-09
-3.4625e-13
-5.24652e-14
1.39355e-09
-5.82039e-13
2.32474e-12
1.39372e-09
1.20165e-13
-3.63904e-13
1.39347e-09
3.31904e-13
-4.32348e-14
1.39379e-09
2.11846e-13
2.80714e-13
1.39412e-09
1.7473e-13
-1.85659e-13
1.39385e-09
6.99803e-14
-8.95123e-14
1.39335e-09
5.13682e-13
1.36237e-14
1.39384e-09
-1.04858e-12
-2.1545e-13
1.39375e-09
5.11943e-13
2.62635e-13
1.39494e-09
-2.81864e-12
1.51624e-12
-3.17864e-13
-5.29221e-13
3.71043e-09
-1.97059e-09
-6.39008e-09
-2.14563e-09
8.8849e-10
-1.02761e-09
1.55535e-09
1.66814e-08
-2.47897e-09
-7.43396e-09
3.6188e-09
-2.6922e-09
5.06893e-09
1.99407e-09
-1.79586e-09
-4.805e-10
5.80036e-10
1.35376e-09
-7.24459e-10
-8.37882e-09
5.41349e-09
2.19811e-10
-4.60084e-10
5.7768e-10
-7.40558e-10
2.70659e-09
1.07506e-09
-6.56868e-10
8.35936e-10
1.05444e-09
-4.62384e-10
-7.71127e-10
1.58099e-09
-4.40423e-10
-6.71108e-10
-3.33534e-09
2.86588e-09
-4.81426e-10
-6.39469e-10
5.01422e-10
1.26033e-09
-6.40861e-10
-2.68233e-11
2.51713e-11
1.14548e-11
-1.16886e-10
1.07083e-10
-2.70144e-11
-1.71306e-11
1.57765e-10
1.4768e-13
8.56219e-12
-2.56623e-11
-5.00064e-11
-4.66614e-11
1.32299e-09
-5.40446e-11
-2.09537e-11
-2.30746e-10
-2.28678e-10
-3.7961e-10
-3.75711e-10
1.35781e-09
-1.14091e-11
-5.85133e-13
1.37504e-09
-4.91829e-12
9.44702e-13
1.38344e-09
1.3042e-13
6.45977e-14
1.38757e-09
1.55008e-12
-2.34795e-13
1.39052e-09
3.43492e-13
-1.62594e-14
1.39206e-09
5.88755e-13
-7.30685e-15
1.39274e-09
1.21316e-12
-4.50933e-13
1.39332e-09
4.12434e-13
7.74328e-13
1.39357e-09
-2.036e-13
-2.86373e-13
1.39359e-09
1.24156e-13
-2.3775e-12
1.39376e-09
1.51806e-13
-1.82071e-13
1.39376e-09
-4.94273e-14
-2.00581e-14
1.39371e-09
-9.73084e-14
-2.66783e-13
1.39369e-09
1.80729e-15
2.19302e-14
1.39362e-09
2.12354e-13
-2.26524e-14
1.39363e-09
3.60074e-15
-4.89039e-13
1.39389e-09
-8.87822e-14
-5.33626e-13
1.39379e-09
9.46103e-13
-7.33811e-13
1.39397e-09
-6.20443e-14
2.48361e-14
1.39428e-09
3.44167e-13
1.64584e-13
1.39428e-09
1.71308e-13
6.64334e-13
1.39353e-09
-3.7191e-13
-2.19173e-12
1.39376e-09
1.1447e-13
7.3278e-15
1.39412e-09
1.33031e-12
-1.74931e-12
1.39356e-09
-1.21251e-13
9.00041e-13
1.39374e-09
-1.02879e-13
-1.74199e-13
1.39378e-09
3.7468e-14
3.37068e-13
1.39377e-09
-6.75658e-14
-2.37294e-13
1.39444e-09
-4.0714e-13
1.39316e-13
1.39405e-09
7.49074e-13
-6.96444e-13
1.394e-09
-4.39431e-13
-8.87287e-14
1.39398e-09
-4.32621e-13
5.81587e-13
1.39363e-09
2.64351e-12
-1.95999e-12
1.39406e-09
-3.3614e-13
1.266e-13
1.39377e-09
4.04267e-13
6.31654e-14
1.39439e-09
-9.32878e-13
3.87759e-13
1.39465e-09
3.50732e-13
-9.76101e-14
1.39339e-09
5.31337e-13
-3.18684e-13
1.39365e-09
3.90695e-13
-1.36623e-13
1.39376e-09
1.05786e-12
-3.98053e-12
-1.54724e-12
-8.46195e-14
-7.41661e-09
1.15583e-08
6.28805e-09
-1.03818e-08
2.744e-09
-7.39762e-09
1.06989e-09
2.55839e-09
-1.21688e-09
4.85285e-09
2.98229e-10
1.05997e-09
2.74825e-09
3.46067e-09
-7.86167e-09
1.44648e-09
-3.97113e-10
1.08171e-09
2.54869e-09
-2.05186e-09
-7.68726e-10
-2.12573e-09
1.19616e-09
1.18499e-09
7.96373e-10
1.27951e-09
6.39838e-10
-3.4731e-09
1.19157e-08
4.69479e-09
7.33413e-10
-7.43904e-10
1.61956e-09
4.06506e-10
4.23733e-09
6.28511e-10
8.99385e-08
-1.82177e-08
-6.72434e-08
-2.51344e-08
1.7615e-10
-2.07996e-09
9.15559e-10
3.50844e-10
6.37403e-10
-8.55767e-11
2.18154e-12
-5.23081e-12
6.21585e-11
2.64675e-11
1.40471e-09
-3.43648e-11
-2.39297e-10
-2.75782e-10
-3.98977e-10
-4.69292e-10
1.67791e-11
8.61479e-12
2.33216e-11
9.42319e-12
1.38194e-09
-1.88532e-12
1.38268e-09
-1.17344e-12
1.38436e-09
-4.76206e-13
1.38672e-09
1.61172e-15
1.38846e-09
2.51294e-13
1.39125e-09
5.02369e-13
1.39224e-09
-5.7479e-14
1.39262e-09
1.74684e-13
1.39274e-09
8.33888e-14
1.39352e-09
5.82869e-13
1.39379e-09
-9.58984e-14
1.39397e-09
2.82623e-13
1.39357e-09
-6.97693e-13
1.39352e-09
2.6064e-13
1.39353e-09
2.71595e-16
1.39389e-09
4.82595e-14
1.3939e-09
-9.53954e-14
1.39362e-09
7.51141e-14
1.39364e-09
9.60025e-13
1.39372e-09
2.35676e-14
1.39437e-09
1.16786e-12
1.39441e-09
-5.65552e-13
1.39386e-09
-3.06055e-12
1.39304e-09
-1.17889e-12
1.39343e-09
1.45294e-12
1.39392e-09
-2.55292e-13
1.3939e-09
9.04074e-14
1.39386e-09
9.05786e-14
1.394e-09
-2.62849e-13
1.39372e-09
3.04481e-14
1.3944e-09
7.41908e-13
1.39403e-09
1.31795e-13
1.39402e-09
-1.46083e-13
1.3945e-09
2.04777e-12
1.39425e-09
-1.37676e-13
1.39412e-09
-1.43356e-13
1.39373e-09
-4.03206e-13
1.39396e-09
9.96757e-14
1.39439e-09
1.739e-13
1.39498e-09
-2.22829e-13
1.39364e-09
2.59361e-12
1.3392e-13
9.90889e-09
9.64831e-10
-4.49812e-10
6.23163e-09
1.25739e-09
-2.38337e-09
5.22067e-10
1.11546e-09
-1.97959e-09
1.65788e-09
1.11871e-09
6.81435e-10
3.24916e-09
-8.01652e-10
2.96453e-10
-4.47954e-09
2.54385e-09
3.59722e-09
-3.74023e-10
-3.91268e-10
-2.45006e-09
-2.74285e-09
-8.59351e-10
6.46308e-10
5.3613e-10
3.09434e-09
-1.7312e-10
-5.8607e-11
1.91256e-11
4.27615e-11
1.76545e-10
2.38871e-09
1.30865e-11
3.97609e-11
-6.6623e-10
-6.10976e-10
-6.66226e-10
-6.10906e-10
2.32503e-09
1.00331e-11
9.64627e-13
2.31385e-09
-1.03475e-11
3.21669e-13
2.3112e-09
-9.74545e-12
-2.75367e-14
2.31428e-09
-8.19156e-12
-4.73656e-13
2.31838e-09
-5.99954e-12
-5.02857e-13
2.31885e-09
-4.81669e-12
6.09863e-13
2.32077e-09
-3.21302e-12
2.09382e-13
2.32168e-09
-2.63811e-12
9.22993e-13
2.32309e-09
-1.46537e-12
-3.40263e-14
2.32252e-09
-9.57873e-13
-8.23706e-13
2.32306e-09
-9.40455e-13
6.48613e-13
2.3234e-09
-3.6722e-13
-8.05127e-13
2.324e-09
-1.42082e-13
-8.06446e-13
2.32457e-09
-9.24493e-13
-8.79024e-13
2.32411e-09
4.2549e-13
6.22762e-15
2.32405e-09
-2.48638e-13
1.64788e-13
2.32403e-09
2.98874e-13
-2.40675e-14
2.32446e-09
-7.71882e-13
3.24291e-13
2.32451e-09
2.06987e-13
1.46928e-13
2.32463e-09
-2.06029e-13
-7.85419e-14
2.32401e-09
-6.05536e-13
4.18349e-13
2.32411e-09
2.21553e-13
-3.25555e-13
2.32338e-09
4.18709e-12
-4.32421e-13
2.32357e-09
4.14218e-12
-3.0193e-12
2.32392e-09
-7.40474e-13
-2.50737e-13
2.32514e-09
7.51823e-13
-8.02775e-13
2.32467e-09
2.43604e-13
-1.96548e-14
2.32443e-09
1.67625e-13
5.36641e-14
2.32341e-09
7.48141e-13
5.94493e-13
2.32309e-09
-1.03967e-12
6.98646e-13
2.32623e-09
-7.18539e-13
-2.19418e-12
2.32539e-09
9.27945e-13
-1.00386e-13
2.32486e-09
2.94838e-13
2.20732e-13
2.32527e-09
-4.99652e-14
-7.77891e-14
2.32628e-09
-8.7151e-13
-3.79462e-14
2.32381e-09
4.66164e-12
-3.38248e-12
2.32419e-09
-2.88371e-13
-1.59223e-13
2.32382e-09
1.87661e-13
1.14299e-13
2.32549e-09
-1.53088e-12
-4.9342e-13
2.32507e-09
2.37246e-13
1.70126e-13
2.32399e-09
7.81166e-13
9.1902e-13
-5.87691e-13
-4.58974e-13
6.07309e-09
1.97394e-10
-8.48586e-09
1.9053e-09
1.60319e-09
-9.45972e-10
-5.1876e-11
-1.13764e-10
3.34882e-09
1.2276e-10
2.49651e-10
2.25517e-10
4.85469e-09
-1.22876e-09
-5.6619e-09
-8.34801e-10
3.1242e-09
-8.60419e-10
9.58542e-10
6.70573e-10
-1.56228e-09
5.70727e-10
-1.16832e-09
-9.36249e-10
-6.16287e-10
-8.28029e-11
-8.57879e-10
5.01294e-09
1.10897e-09
-3.26515e-10
5.97107e-11
-5.77052e-11
-2.29482e-10
2.84641e-10
2.65638e-10
-3.22802e-10
-8.53598e-11
-9.58478e-11
-2.60092e-11
2.47279e-11
5.35113e-11
1.28978e-10
2.33974e-09
4.25647e-12
3.35152e-11
-5.89757e-10
-6.01448e-10
-5.89791e-10
-6.01467e-10
-9.90971e-12
4.25572e-12
-9.91038e-12
2.31054e-09
3.7063e-11
1.08485e-12
2.31346e-09
-1.38881e-11
2.75352e-13
2.31521e-09
-1.17094e-11
9.23998e-14
2.31808e-09
-1.11849e-11
3.78325e-14
2.32032e-09
-8.34097e-12
4.2033e-14
2.32147e-09
-6.0775e-12
4.11902e-14
2.32227e-09
-4.06832e-12
-7.40294e-15
2.3238e-09
-2.58871e-12
-6.82465e-13
2.32411e-09
-1.93745e-12
3.71843e-14
2.32339e-09
-1.75669e-12
8.2268e-13
2.32318e-09
-2.61468e-12
-1.30172e-12
2.32352e-09
-6.69087e-13
-2.64603e-14
2.32467e-09
-2.20155e-12
1.09739e-12
2.32405e-09
-4.00397e-13
5.84455e-14
2.32425e-09
1.51093e-13
3.68491e-14
2.32411e-09
8.63298e-14
-2.85634e-13
2.32426e-09
-6.54838e-14
7.42917e-14
2.32399e-09
5.19046e-15
-2.35374e-13
2.32424e-09
-1.73087e-14
-3.21292e-15
2.32454e-09
-4.1928e-13
-4.35212e-14
2.32324e-09
5.07459e-12
-2.62763e-12
2.32278e-09
1.39114e-12
4.89317e-13
2.3238e-09
3.27119e-13
1.65286e-12
2.32409e-09
8.44823e-13
1.53214e-12
2.32585e-09
-3.3354e-12
3.63576e-12
2.32522e-09
1.34927e-12
1.34628e-12
2.32486e-09
4.02948e-13
1.05592e-13
2.32491e-09
1.9905e-13
-2.72917e-14
2.32542e-09
4.89078e-13
-3.29624e-13
2.32583e-09
-6.3011e-13
-6.61892e-13
2.32322e-09
-9.70959e-13
2.28248e-12
2.32351e-09
3.11702e-13
-6.67596e-15
2.324e-09
-1.70578e-13
2.98022e-14
2.32417e-09
-1.66405e-13
-9.45625e-16
2.3231e-09
3.66399e-13
-7.06766e-14
2.3257e-09
4.62455e-13
3.61006e-12
2.32513e-09
1.45824e-13
1.09062e-13
2.32522e-09
2.5018e-13
-6.50166e-14
2.32461e-09
7.23058e-13
-5.75261e-13
2.32436e-09
6.30091e-13
-1.94106e-13
2.32478e-09
2.06843e-13
-7.8352e-13
-2.86761e-13
2.20213e-13
-4.44265e-09
2.53431e-10
-1.72571e-08
1.77065e-09
-7.90756e-11
5.28278e-09
1.19164e-10
1.46662e-10
6.51759e-10
1.76776e-09
3.93023e-09
4.5711e-09
2.82539e-09
5.19961e-10
5.42975e-08
1.49955e-09
-4.63409e-09
-7.09731e-10
6.92081e-09
-5.59342e-10
2.2237e-09
-1.24473e-08
-3.45484e-09
4.50109e-09
9.73669e-09
7.60478e-10
-7.78234e-11
1.00055e-09
-3.1165e-10
-5.48934e-10
-8.22618e-10
-9.40963e-11
1.06009e-10
-9.42313e-12
-3.32668e-11
-3.71157e-11
6.78929e-11
-1.24311e-10
5.40393e-10
-2.31504e-11
8.15673e-13
-6.03205e-12
-1.24827e-10
-1.28996e-10
-1.29633e-10
2.2622e-09
-8.3733e-11
1.91275e-11
-5.34577e-10
-5.55057e-10
-5.34584e-10
-5.55081e-10
2.29488e-09
-5.04406e-11
1.92176e-12
2.31417e-09
-2.96873e-11
-6.87829e-13
2.32098e-09
-1.80123e-11
-2.54529e-14
2.32386e-09
-1.11549e-11
-4.87309e-14
2.32461e-09
-6.85286e-12
-1.3107e-14
2.32462e-09
-4.09905e-12
-1.98836e-14
2.32447e-09
-2.44977e-12
-2.90198e-14
2.32435e-09
-1.74066e-12
-6.92268e-14
2.32567e-09
-1.14919e-12
-8.33833e-13
2.32427e-09
4.08397e-13
1.38642e-12
2.32439e-09
-9.11332e-13
7.57955e-15
2.32394e-09
-1.01319e-12
-1.12282e-12
2.32438e-09
-7.30755e-13
-1.24053e-13
2.32412e-09
1.96317e-12
-7.80963e-13
2.32428e-09
5.01401e-13
-3.07496e-13
2.32361e-09
2.6105e-12
-9.39087e-13
2.32354e-09
4.16241e-14
-1.34121e-13
2.32348e-09
-6.85759e-14
-3.71827e-14
2.32284e-09
5.48796e-13
-1.63818e-13
2.32397e-09
-9.61679e-13
2.4544e-12
2.32573e-09
-4.71199e-12
1.2423e-12
2.32534e-09
1.01958e-12
-3.08132e-13
2.32699e-09
-2.61745e-12
8.26002e-13
2.32435e-09
3.20915e-14
-3.53652e-12
2.32386e-09
2.2555e-13
-8.32543e-13
2.32421e-09
3.72479e-13
-1.78478e-13
2.32462e-09
-1.41828e-13
-9.93602e-15
2.32476e-09
6.59963e-14
3.04093e-13
2.3246e-09
-3.4994e-14
-5.23551e-14
2.32375e-09
-5.15327e-13
-5.71604e-14
2.32403e-09
-1.56321e-13
1.6288e-13
2.32363e-09
-1.37393e-14
1.76636e-13
2.32403e-09
-2.27614e-13
-4.45384e-13
2.32461e-09
1.04956e-12
6.5816e-13
2.32586e-09
1.40195e-12
-9.34474e-13
2.32548e-09
1.10871e-12
-2.41323e-13
2.3255e-09
7.68097e-13
-3.00719e-13
2.32424e-09
1.01546e-13
9.6715e-13
2.32391e-09
8.80806e-13
5.48114e-14
2.32382e-09
4.46154e-13
-9.01301e-14
-2.45301e-12
1.50655e-12
-7.58789e-10
4.7729e-10
-1.57841e-09
1.02688e-09
-1.91075e-09
9.03054e-10
1.5221e-09
4.32288e-10
1.26169e-09
1.77636e-09
1.52051e-10
3.71568e-09
-1.91703e-09
-1.22255e-09
-1.36688e-09
7.66031e-10
2.8068e-09
9.33791e-10
-7.60657e-10
8.70039e-09
-2.28644e-08
1.40068e-08
2.09816e-09
1.67549e-09
2.18299e-09
1.46348e-09
-3.01577e-09
-1.30986e-09
-1.21512e-09
-9.61565e-10
3.59385e-08
4.58003e-09
2.28802e-09
-2.29939e-09
-7.38747e-09
-3.31197e-08
1.52554e-09
2.57213e-10
2.02034e-09
-1.16265e-09
3.97628e-10
-3.03808e-09
4.56259e-11
5.4923e-11
2.19802e-10
-2.71237e-10
-3.15821e-11
-1.75321e-11
-1.15019e-10
5.64846e-10
-2.46813e-12
-3.33141e-11
-1.14422e-10
-1.17086e-10
-1.16247e-10
4.70233e-11
-2.75618e-11
-2.87758e-11
-2.90929e-11
-2.78826e-11
2.33052e-09
-1.31731e-10
2.34481e-11
-5.59206e-10
-6.05606e-10
-5.59234e-10
-6.05698e-10
2.33475e-09
-5.84217e-11
1.78072e-12
2.33664e-09
-3.05291e-11
-5.45547e-13
2.33403e-09
-1.55444e-11
6.74265e-14
2.33168e-09
-8.7613e-12
-4.16947e-14
2.32948e-09
-4.70895e-12
2.02069e-15
2.32762e-09
-2.31817e-12
6.53978e-15
2.32632e-09
-1.2444e-12
1.20969e-14
2.32543e-09
-9.15284e-13
2.34221e-15
2.32427e-09
-4.77449e-13
-6.32487e-14
2.32507e-09
-1.51012e-13
-1.4162e-13
2.32477e-09
-3.94123e-13
-2.47994e-13
2.32468e-09
-8.8131e-13
2.02268e-15
2.32447e-09
-4.15773e-13
-9.68372e-14
2.32417e-09
6.66894e-13
-1.72093e-15
2.32395e-09
3.70224e-14
3.41331e-13
2.32453e-09
2.02154e-13
7.89728e-13
2.32432e-09
-6.40082e-14
1.62326e-13
2.32427e-09
1.29093e-13
1.63552e-14
2.32459e-09
-1.26385e-12
4.82997e-13
2.3255e-09
-3.37009e-12
7.87644e-13