/*--------------------------------*- C++ -*----------------------------------*\
| =========                 |                                                 |
| \\      /  F ield         | OpenFOAM: The Open Source CFD Toolbox           |
|  \\    /   O peration     | Version:  5.0                                   |
|   \\  /    A nd           | Web:      www.OpenFOAM.org                      |
|    \\/     M anipulation  |                                                 |
\*---------------------------------------------------------------------------*/
FoamFile
{
    version     2.0;
    format      ascii;
    class       volScalarField;
    location    "3.1";
    object      rAU;
}
// * * * * * * * * * * * * * * * * * * * * * * * * * * * * * * * * * * * * * //

dimensions      [-1 3 1 0 0 0 0];

internalField   nonuniform List<scalar> 
8577
(
9.6263e-07
9.6827e-07
9.48751e-07
8.85324e-07
8.68416e-07
5.73444e-07
3.48637e-08
3.9242e-07
3.93663e-07
3.94697e-07
3.95731e-07
3.96763e-07
3.97795e-07
3.98826e-07
3.99857e-07
4.00886e-07
4.01916e-07
4.02944e-07
4.03971e-07
4.04999e-07
4.06025e-07
4.0705e-07
4.08075e-07
4.09099e-07
4.10122e-07
4.11145e-07
4.12167e-07
4.13188e-07
4.14208e-07
4.15228e-07
4.16246e-07
4.17264e-07
4.18281e-07
4.19298e-07
4.20314e-07
4.21328e-07
4.22342e-07
4.23356e-07
4.24368e-07
4.25379e-07
4.2639e-07
4.274e-07
4.28409e-07
4.29418e-07
4.30425e-07
4.31432e-07
4.32438e-07
4.33442e-07
4.34446e-07
4.36222e-07
9.64058e-07
9.72143e-07
9.67987e-07
9.69416e-07
8.72606e-07
6.98895e-07
3.81425e-08
3.92288e-07
3.93664e-07
3.94698e-07
3.95731e-07
3.96763e-07
3.97795e-07
3.98826e-07
3.99857e-07
4.00886e-07
4.01916e-07
4.02944e-07
4.03971e-07
4.04999e-07
4.06025e-07
4.0705e-07
4.08075e-07
4.09099e-07
4.10122e-07
4.11145e-07
4.12167e-07
4.13188e-07
4.14208e-07
4.15228e-07
4.16246e-07
4.17264e-07
4.18281e-07
4.19298e-07
4.20314e-07
4.21328e-07
4.22342e-07
4.23356e-07
4.24368e-07
4.25379e-07
4.2639e-07
4.274e-07
4.28409e-07
4.29418e-07
4.30425e-07
4.31432e-07
4.32438e-07
4.33442e-07
4.34446e-07
4.36222e-07
9.63756e-07
9.60529e-07
9.19023e-07
9.53016e-07
8.9574e-07
6.88829e-07
2.43207e-07
1.29779e-07
3.93455e-07
3.94698e-07
3.95731e-07
3.96763e-07
3.97795e-07
3.98826e-07
3.99857e-07
4.00886e-07
4.01916e-07
4.02944e-07
4.03971e-07
4.04999e-07
4.06025e-07
4.0705e-07
4.08075e-07
4.09099e-07
4.10122e-07
4.11145e-07
4.12167e-07
4.13188e-07
4.14208e-07
4.15227e-07
4.16246e-07
4.17264e-07
4.18281e-07
4.19298e-07
4.20314e-07
4.21328e-07
4.22342e-07
4.23356e-07
4.24368e-07
4.25379e-07
4.2639e-07
4.274e-07
4.28409e-07
4.29418e-07
4.30425e-07
4.31432e-07
4.32438e-07
4.33442e-07
4.34446e-07
4.36222e-07
9.66912e-07
9.63365e-07
7.3854e-07
8.77141e-07
6.59253e-07
6.53903e-07
7.01166e-07
1.29667e-07
3.93453e-07
3.94696e-07
3.9573e-07
3.96763e-07
3.97795e-07
3.98826e-07
3.99857e-07
4.00886e-07
4.01916e-07
4.02944e-07
4.03971e-07
4.04999e-07
4.06025e-07
4.0705e-07
4.08075e-07
4.09099e-07
4.10122e-07
4.11145e-07
4.12167e-07
4.13188e-07
4.14208e-07
4.15228e-07
4.16246e-07
4.17264e-07
4.18281e-07
4.19298e-07
4.20314e-07
4.21328e-07
4.22342e-07
4.23356e-07
4.24368e-07
4.25379e-07
4.2639e-07
4.274e-07
4.28409e-07
4.29418e-07
4.30425e-07
4.31432e-07
4.32438e-07
4.33442e-07
4.34446e-07
4.36222e-07
8.84604e-07
7.81833e-07
5.35573e-07
8.67684e-07
8.94164e-07
6.75024e-07
7.00675e-07
3.51805e-08
3.9345e-07
3.94695e-07
3.9573e-07
3.96762e-07
3.97794e-07
3.98826e-07
3.99856e-07
4.00886e-07
4.01916e-07
4.02944e-07
4.03971e-07
4.04999e-07
4.06025e-07
4.0705e-07
4.08075e-07
4.09099e-07
4.10122e-07
4.11145e-07
4.12167e-07
4.13188e-07
4.14208e-07
4.15228e-07
4.16246e-07
4.17264e-07
4.18281e-07
4.19298e-07
4.20314e-07
4.21328e-07
4.22342e-07
4.23356e-07
4.24368e-07
4.25379e-07
4.2639e-07
4.274e-07
4.28409e-07
4.29418e-07
4.30425e-07
4.31432e-07
4.32438e-07
4.33442e-07
4.34446e-07
4.36222e-07
8.77256e-07
6.32835e-07
7.85698e-07
8.67997e-07
5.90871e-07
5.78032e-07
7.00716e-07
3.51063e-08
3.93451e-07
3.94695e-07
3.9573e-07
3.96762e-07
3.97794e-07
3.98826e-07
3.99856e-07
4.00886e-07
4.01916e-07
4.02944e-07
4.03971e-07
4.04999e-07
4.06025e-07
4.0705e-07
4.08075e-07
4.09099e-07
4.10122e-07
4.11145e-07
4.12167e-07
4.13188e-07
4.14208e-07
4.15227e-07
4.16246e-07
4.17264e-07
4.18281e-07
4.19298e-07
4.20314e-07
4.21328e-07
4.22342e-07
4.23356e-07
4.24368e-07
4.25379e-07
4.2639e-07
4.274e-07
4.28409e-07
4.29418e-07
4.30425e-07
4.31432e-07
4.32438e-07
4.33442e-07
4.34446e-07
4.36222e-07
7.20454e-07
7.56092e-07
6.12455e-07
6.44e-07
6.17248e-07
5.63211e-07
7.00697e-07
3.52112e-08
3.93452e-07
3.94696e-07
3.9573e-07
3.96763e-07
3.97794e-07
3.98826e-07
3.99856e-07
4.00886e-07
4.01916e-07
4.02944e-07
4.03971e-07
4.04999e-07
4.06025e-07
4.0705e-07
4.08075e-07
4.09099e-07
4.10122e-07
4.11145e-07
4.12167e-07
4.13188e-07
4.14208e-07
4.15227e-07
4.16246e-07
4.17264e-07
4.18281e-07
4.19298e-07
4.20314e-07
4.21328e-07
4.22342e-07
4.23356e-07
4.24368e-07
4.25379e-07
4.2639e-07
4.274e-07
4.28409e-07
4.29418e-07
4.30425e-07
4.31432e-07
4.32438e-07
4.33442e-07
4.34446e-07
4.36222e-07
7.61979e-07
8.91759e-07
8.14362e-07
8.6707e-07
8.83044e-07
6.66802e-07
6.98156e-07
1.29689e-07
3.93453e-07
3.94696e-07
3.9573e-07
3.96763e-07
3.97794e-07
3.98826e-07
3.99856e-07
4.00886e-07
4.01916e-07
4.02944e-07
4.03971e-07
4.04999e-07
4.06025e-07
4.0705e-07
4.08075e-07
4.09099e-07
4.10122e-07
4.11145e-07
4.12167e-07
4.13188e-07
4.14208e-07
4.15228e-07
4.16246e-07
4.17264e-07
4.18281e-07
4.19298e-07
4.20314e-07
4.21328e-07
4.22342e-07
4.23356e-07
4.24368e-07
4.25379e-07
4.2639e-07
4.274e-07
4.28409e-07
4.29418e-07
4.30425e-07
4.31432e-07
4.32438e-07
4.33442e-07
4.34446e-07
4.36222e-07
9.32967e-07
9.47224e-07
8.51203e-07
6.59108e-07
5.45784e-07
6.52455e-07
1.58489e-07
1.29503e-07
3.93454e-07
3.94697e-07
3.95731e-07
3.96763e-07
3.97795e-07
3.98826e-07
3.99857e-07
4.00886e-07
4.01916e-07
4.02944e-07
4.03971e-07
4.04999e-07
4.06025e-07
4.0705e-07
4.08075e-07
4.09099e-07
4.10122e-07
4.11145e-07
4.12167e-07
4.13188e-07
4.14208e-07
4.15228e-07
4.16246e-07
4.17264e-07
4.18281e-07
4.19298e-07
4.20314e-07
4.21328e-07
4.22342e-07
4.23356e-07
4.24368e-07
4.25379e-07
4.2639e-07
4.274e-07
4.28409e-07
4.29418e-07
4.30425e-07
4.31432e-07
4.32438e-07
4.33442e-07
4.34446e-07
4.36222e-07
9.6269e-07
9.58736e-07
9.41033e-07
6.94904e-07
8.19354e-07
6.12057e-07
3.822e-08
3.92286e-07
3.93663e-07
3.94697e-07
3.95731e-07
3.96763e-07
3.97795e-07
3.98826e-07
3.99857e-07
4.00886e-07
4.01916e-07
4.02944e-07
4.03971e-07
4.04999e-07
4.06025e-07
4.0705e-07
4.08075e-07
4.09099e-07
4.10122e-07
4.11145e-07
4.12167e-07
4.13188e-07
4.14208e-07
4.15228e-07
4.16246e-07
4.17264e-07
4.18281e-07
4.19298e-07
4.20314e-07
4.21328e-07
4.22342e-07
4.23356e-07
4.24368e-07
4.25379e-07
4.2639e-07
4.274e-07
4.28409e-07
4.29418e-07
4.30425e-07
4.31432e-07
4.32438e-07
4.33442e-07
4.34446e-07
4.36222e-07
9.77177e-07
9.73856e-07
9.67709e-07
8.13394e-07
9.00468e-07
5.84271e-07
5.16202e-08
5.04897e-07
5.06387e-07
5.07529e-07
5.08666e-07
5.09803e-07
5.10939e-07
5.12072e-07
5.13204e-07
5.14335e-07
5.15464e-07
5.16591e-07
5.17717e-07
5.18841e-07
5.19964e-07
5.21085e-07
5.22203e-07
5.23321e-07
5.24438e-07
5.25551e-07
5.26665e-07
5.27776e-07
5.28885e-07
5.29993e-07
5.31099e-07
5.32203e-07
5.33306e-07
5.34408e-07
5.35507e-07
5.36605e-07
5.37702e-07
5.38795e-07
5.39889e-07
5.4098e-07
5.42069e-07
5.43157e-07
5.44244e-07
5.45328e-07
5.46411e-07
5.47493e-07
5.48571e-07
5.49649e-07
5.50726e-07
5.53041e-07
9.63366e-07
9.72506e-07
9.72171e-07
9.66752e-07
9.23196e-07
7.30936e-07
5.65026e-08
5.0468e-07
5.06389e-07
5.07529e-07
5.08666e-07
5.09803e-07
5.10939e-07
5.12072e-07
5.13204e-07
5.14335e-07
5.15464e-07
5.16591e-07
5.17717e-07
5.18841e-07
5.19964e-07
5.21085e-07
5.22203e-07
5.23321e-07
5.24438e-07
5.25551e-07
5.26665e-07
5.27776e-07
5.28885e-07
5.29993e-07
5.31099e-07
5.32203e-07
5.33306e-07
5.34408e-07
5.35507e-07
5.36605e-07
5.37701e-07
5.38795e-07
5.39889e-07
5.4098e-07
5.42069e-07
5.43157e-07
5.44244e-07
5.45328e-07
5.46411e-07
5.47492e-07
5.48571e-07
5.4965e-07
5.50726e-07
5.53041e-07
9.63621e-07
9.68584e-07
8.70538e-07
9.17063e-07
8.74294e-07
7.09425e-07
3.21519e-07
1.84069e-07
5.06042e-07
5.07529e-07
5.08666e-07
5.09803e-07
5.10939e-07
5.12072e-07
5.13204e-07
5.14335e-07
5.15464e-07
5.16591e-07
5.17717e-07
5.18841e-07
5.19964e-07
5.21085e-07
5.22203e-07
5.23321e-07
5.24438e-07
5.25551e-07
5.26665e-07
5.27776e-07
5.28885e-07
5.29993e-07
5.31099e-07
5.32203e-07
5.33306e-07
5.34408e-07
5.35507e-07
5.36605e-07
5.37702e-07
5.38795e-07
5.39889e-07
5.4098e-07
5.42069e-07
5.43157e-07
5.44244e-07
5.45328e-07
5.46411e-07
5.47492e-07
5.48571e-07
5.4965e-07
5.50726e-07
5.53041e-07
9.60405e-07
9.28386e-07
3.68161e-07
8.51572e-07
4.66312e-07
7.12431e-07
7.76915e-07
1.83844e-07
5.06036e-07
5.07525e-07
5.08664e-07
5.09802e-07
5.10938e-07
5.12071e-07
5.13204e-07
5.14335e-07
5.15463e-07
5.16591e-07
5.17717e-07
5.18841e-07
5.19964e-07
5.21085e-07
5.22203e-07
5.23321e-07
5.24438e-07
5.25551e-07
5.26665e-07
5.27776e-07
5.28885e-07
5.29993e-07
5.31099e-07
5.32203e-07
5.33306e-07
5.34408e-07
5.35507e-07
5.36605e-07
5.37702e-07
5.38795e-07
5.39889e-07
5.4098e-07
5.42069e-07
5.43157e-07
5.44244e-07
5.45328e-07
5.46411e-07
5.47492e-07
5.48571e-07
5.49649e-07
5.50726e-07
5.53041e-07
8.79859e-07
8.42736e-07
5.55443e-07
2.76732e-07
5.14002e-07
6.60953e-07
7.76933e-07
5.20025e-08
5.06029e-07
5.07523e-07
5.08663e-07
5.09801e-07
5.10938e-07
5.12071e-07
5.13204e-07
5.14335e-07
5.15463e-07
5.16591e-07
5.17717e-07
5.18841e-07
5.19964e-07
5.21085e-07
5.22203e-07
5.23321e-07
5.24438e-07
5.25551e-07
5.26665e-07
5.27776e-07
5.28885e-07
5.29993e-07
5.31099e-07
5.32203e-07
5.33306e-07
5.34408e-07
5.35507e-07
5.36605e-07
5.37702e-07
5.38795e-07
5.39889e-07
5.4098e-07
5.42069e-07
5.43157e-07
5.44244e-07
5.45328e-07
5.46411e-07
5.47492e-07
5.48571e-07
5.49649e-07
5.50726e-07
5.53041e-07
8.35491e-07
2.58664e-07
8.83434e-07
8.3828e-07
6.5423e-07
7.42191e-07
7.7506e-07
5.22092e-08
5.0603e-07
5.07523e-07
5.08663e-07
5.09801e-07
5.10938e-07
5.12071e-07
5.13204e-07
5.14335e-07
5.15463e-07
5.16591e-07
5.17717e-07
5.18841e-07
5.19963e-07
5.21085e-07
5.22203e-07
5.23321e-07
5.24438e-07
5.25551e-07
5.26665e-07
5.27776e-07
5.28885e-07
5.29993e-07
5.31099e-07
5.32203e-07
5.33306e-07
5.34408e-07
5.35507e-07
5.36605e-07
5.37702e-07
5.38795e-07
5.39889e-07
5.4098e-07
5.42069e-07
5.43157e-07
5.44244e-07
5.45328e-07
5.46411e-07
5.47493e-07
5.48571e-07
5.49649e-07
5.50726e-07
5.5304e-07
4.75228e-07
2.79376e-07
2.71437e-07
7.27161e-07
9.19024e-07
5.74131e-07
7.73552e-07
5.1992e-08
5.06033e-07
5.07524e-07
5.08663e-07
5.09802e-07
5.10938e-07
5.12071e-07
5.13204e-07
5.14335e-07
5.15463e-07
5.16591e-07
5.17717e-07
5.18841e-07
5.19963e-07
5.21085e-07
5.22203e-07
5.23321e-07
5.24438e-07
5.25551e-07
5.26665e-07
5.27776e-07
5.28885e-07
5.29993e-07
5.31099e-07
5.32203e-07
5.33306e-07
5.34408e-07
5.35507e-07
5.36605e-07
5.37702e-07
5.38795e-07
5.39889e-07
5.4098e-07
5.42069e-07
5.43157e-07
5.44244e-07
5.45328e-07
5.46411e-07
5.47493e-07
5.48571e-07
5.49649e-07
5.50726e-07
5.5304e-07
6.0578e-07
9.22532e-07
8.0412e-07
7.21096e-07
9.2646e-07
7.37911e-07
7.75396e-07
1.83946e-07
5.06036e-07
5.07525e-07
5.08664e-07
5.09802e-07
5.10938e-07
5.12071e-07
5.13204e-07
5.14335e-07
5.15463e-07
5.16591e-07
5.17717e-07
5.18841e-07
5.19964e-07
5.21085e-07
5.22203e-07
5.23321e-07
5.24438e-07
5.25551e-07
5.26665e-07
5.27776e-07
5.28885e-07
5.29993e-07
5.31099e-07
5.32203e-07
5.33306e-07
5.34408e-07
5.35507e-07
5.36605e-07
5.37702e-07
5.38795e-07
5.39889e-07
5.4098e-07
5.42069e-07
5.43157e-07
5.44244e-07
5.45328e-07
5.46411e-07
5.47493e-07
5.48571e-07
5.49649e-07
5.50726e-07
5.53041e-07
8.31088e-07
9.2898e-07
4.20498e-07
3.17953e-07
4.75672e-07
7.04387e-07
2.19883e-07
1.8395e-07
5.06041e-07
5.07528e-07
5.08665e-07
5.09803e-07
5.10939e-07
5.12072e-07
5.13204e-07
5.14335e-07
5.15463e-07
5.16591e-07
5.17717e-07
5.18841e-07
5.19964e-07
5.21085e-07
5.22203e-07
5.23321e-07
5.24438e-07
5.25551e-07
5.26665e-07
5.27776e-07
5.28885e-07
5.29993e-07
5.31099e-07
5.32203e-07
5.33306e-07
5.34408e-07
5.35507e-07
5.36605e-07
5.37702e-07
5.38795e-07
5.39889e-07
5.4098e-07
5.42069e-07
5.43157e-07
5.44244e-07
5.45328e-07
5.46411e-07
5.47492e-07
5.48571e-07
5.4965e-07
5.50726e-07
5.53041e-07
9.62372e-07
9.67911e-07
8.70625e-07
7.48849e-07
1.60664e-07
5.13213e-07
5.65527e-08
5.04676e-07
5.06387e-07
5.07528e-07
5.08666e-07
5.09803e-07
5.10939e-07
5.12072e-07
5.13204e-07
5.14335e-07
5.15464e-07
5.16591e-07
5.17717e-07
5.18841e-07
5.19964e-07
5.21085e-07
5.22204e-07
5.23321e-07
5.24438e-07
5.25551e-07
5.26665e-07
5.27776e-07
5.28885e-07
5.29993e-07
5.31099e-07
5.32203e-07
5.33306e-07
5.34408e-07
5.35507e-07
5.36605e-07
5.37702e-07
5.38795e-07
5.39889e-07
5.4098e-07
5.42069e-07
5.43157e-07
5.44244e-07
5.45328e-07
5.46411e-07
5.47492e-07
5.48571e-07
5.49649e-07
5.50726e-07
5.53041e-07
9.59562e-07
9.70917e-07
9.66316e-07
9.08095e-07
2.16298e-07
7.14573e-07
5.14892e-08
3.9242e-07
3.93663e-07
3.94697e-07
3.95731e-07
3.96763e-07
3.97795e-07
3.98826e-07
3.99857e-07
4.00886e-07
4.01916e-07
4.02944e-07
4.03971e-07
4.04999e-07
4.06025e-07
4.0705e-07
4.08075e-07
4.09099e-07
4.10122e-07
4.11145e-07
4.12167e-07
4.13188e-07
4.14208e-07
4.15227e-07
4.16246e-07
4.17264e-07
4.18281e-07
4.19298e-07
4.20314e-07
4.21328e-07
4.22342e-07
4.23356e-07
4.24368e-07
4.25379e-07
4.2639e-07
4.274e-07
4.28409e-07
4.29418e-07
4.30425e-07
4.31431e-07
4.32438e-07
4.33442e-07
4.34446e-07
4.36222e-07
9.66912e-07
9.69291e-07
9.43006e-07
9.70797e-07
9.09675e-07
7.51914e-07
5.6426e-08
3.92288e-07
3.93664e-07
3.94698e-07
3.95731e-07
3.96763e-07
3.97795e-07
3.98826e-07
3.99857e-07
4.00886e-07
4.01916e-07
4.02944e-07
4.03971e-07
4.04999e-07
4.06025e-07
4.0705e-07
4.08075e-07
4.09099e-07
4.10122e-07
4.11145e-07
4.12167e-07
4.13188e-07
4.14208e-07
4.15227e-07
4.16246e-07
4.17264e-07
4.18281e-07
4.19298e-07
4.20314e-07
4.21328e-07
4.22342e-07
4.23356e-07
4.24368e-07
4.25379e-07
4.2639e-07
4.274e-07
4.28409e-07
4.29418e-07
4.30425e-07
4.31431e-07
4.32438e-07
4.33442e-07
4.34446e-07
4.36222e-07
9.627e-07
9.68414e-07
9.46609e-07
9.2079e-07
8.10596e-07
7.45761e-07
3.215e-07
1.84073e-07
3.93455e-07
3.94698e-07
3.95731e-07
3.96763e-07
3.97795e-07
3.98826e-07
3.99857e-07
4.00886e-07
4.01916e-07
4.02944e-07
4.03971e-07
4.04999e-07
4.06025e-07
4.0705e-07
4.08075e-07
4.09099e-07
4.10122e-07
4.11145e-07
4.12167e-07
4.13188e-07
4.14208e-07
4.15227e-07
4.16246e-07
4.17264e-07
4.18281e-07
4.19298e-07
4.20314e-07
4.21328e-07
4.22342e-07
4.23356e-07
4.24368e-07
4.25379e-07
4.2639e-07
4.274e-07
4.28409e-07
4.29418e-07
4.30425e-07
4.31431e-07
4.32438e-07
4.33442e-07
4.34446e-07
4.36222e-07
9.64967e-07
9.19451e-07
9.0848e-07
7.66638e-07
1.09615e-07
6.93376e-07
7.77128e-07
1.83847e-07
3.93453e-07
3.94696e-07
3.9573e-07
3.96763e-07
3.97794e-07
3.98826e-07
3.99856e-07
4.00886e-07
4.01916e-07
4.02944e-07
4.03971e-07
4.04999e-07
4.06025e-07
4.0705e-07
4.08075e-07
4.09099e-07
4.10122e-07
4.11145e-07
4.12167e-07
4.13188e-07
4.14208e-07
4.15227e-07
4.16246e-07
4.17264e-07
4.18281e-07
4.19298e-07
4.20314e-07
4.21328e-07
4.22342e-07
4.23356e-07
4.24368e-07
4.25379e-07
4.2639e-07
4.274e-07
4.28409e-07
4.29418e-07
4.30425e-07
4.31431e-07
4.32438e-07
4.33442e-07
4.34446e-07
4.36222e-07
9.15483e-07
8.55793e-07
5.09889e-07
5.15158e-07
5.58655e-07
6.59139e-07
7.76931e-07
5.20024e-08
3.9345e-07
3.94695e-07
3.9573e-07
3.96762e-07
3.97794e-07
3.98826e-07
3.99856e-07
4.00886e-07
4.01916e-07
4.02944e-07
4.03971e-07
4.04999e-07
4.06025e-07
4.0705e-07
4.08075e-07
4.09099e-07
4.10122e-07
4.11145e-07
4.12167e-07
4.13188e-07
4.14208e-07
4.15227e-07
4.16246e-07
4.17264e-07
4.18281e-07
4.19298e-07
4.20314e-07
4.21328e-07
4.22342e-07
4.23356e-07
4.24368e-07
4.25379e-07
4.2639e-07
4.274e-07
4.28409e-07
4.29418e-07
4.30425e-07
4.31431e-07
4.32438e-07
4.33442e-07
4.34446e-07
4.36222e-07
6.70153e-07
6.18871e-07
8.82822e-07
8.09917e-07
8.42092e-07
6.99731e-07
7.74286e-07
5.21889e-08
3.93451e-07
3.94695e-07
3.9573e-07
3.96762e-07
3.97794e-07
3.98826e-07
3.99856e-07
4.00886e-07
4.01916e-07
4.02944e-07
4.03971e-07
4.04999e-07
4.06025e-07
4.0705e-07
4.08075e-07
4.09099e-07
4.10122e-07
4.11145e-07
4.12167e-07
4.13187e-07
4.14208e-07
4.15227e-07
4.16246e-07
4.17264e-07
4.18281e-07
4.19298e-07
4.20314e-07
4.21328e-07
4.22342e-07
4.23356e-07
4.24368e-07
4.25379e-07
4.2639e-07
4.274e-07
4.28409e-07
4.29418e-07
4.30425e-07
4.31431e-07
4.32438e-07
4.33442e-07
4.34446e-07
4.36222e-07
4.91295e-07
8.51077e-07
4.53829e-07
2.8356e-07
8.87148e-07
6.79277e-07
7.73884e-07
5.1992e-08
3.93452e-07
3.94696e-07
3.9573e-07
3.96762e-07
3.97794e-07
3.98826e-07
3.99856e-07
4.00886e-07
4.01916e-07
4.02944e-07
4.03971e-07
4.04999e-07
4.06025e-07
4.0705e-07
4.08075e-07
4.09099e-07
4.10122e-07
4.11145e-07
4.12167e-07
4.13188e-07
4.14208e-07
4.15227e-07
4.16246e-07
4.17264e-07
4.18281e-07
4.19298e-07
4.20314e-07
4.21328e-07
4.22342e-07
4.23356e-07
4.24368e-07
4.25379e-07
4.2639e-07
4.274e-07
4.28409e-07
4.29418e-07
4.30425e-07
4.31431e-07
4.32438e-07
4.33442e-07
4.34446e-07
4.36222e-07
2.36924e-07
9.13667e-07
8.79514e-07
7.41697e-07
6.75218e-07
7.38351e-07
7.76247e-07
1.83951e-07
3.93453e-07
3.94696e-07
3.9573e-07
3.96763e-07
3.97794e-07
3.98826e-07
3.99856e-07
4.00886e-07
4.01916e-07
4.02944e-07
4.03971e-07
4.04999e-07
4.06025e-07
4.0705e-07
4.08075e-07
4.09099e-07
4.10122e-07
4.11145e-07
4.12167e-07
4.13188e-07
4.14208e-07
4.15227e-07
4.16246e-07
4.17264e-07
4.18281e-07
4.19298e-07
4.20314e-07
4.21328e-07
4.22342e-07
4.23356e-07
4.24368e-07
4.25379e-07
4.2639e-07
4.274e-07
4.28409e-07
4.29418e-07
4.30425e-07
4.31431e-07
4.32438e-07
4.33442e-07
4.34446e-07
4.36222e-07
9.44592e-07
8.79433e-07
7.20073e-07
4.55215e-07
2.59654e-07
7.26412e-07
2.19916e-07
1.83954e-07
3.93454e-07
3.94697e-07
3.9573e-07
3.96763e-07
3.97795e-07
3.98826e-07
3.99856e-07
4.00886e-07
4.01916e-07
4.02944e-07
4.03971e-07
4.04999e-07
4.06025e-07
4.0705e-07
4.08075e-07
4.09099e-07
4.10122e-07
4.11145e-07
4.12167e-07
4.13188e-07
4.14208e-07
4.15227e-07
4.16246e-07
4.17264e-07
4.18281e-07
4.19298e-07
4.20314e-07
4.21328e-07
4.22342e-07
4.23356e-07
4.24368e-07
4.25379e-07
4.2639e-07
4.274e-07
4.28409e-07
4.29418e-07
4.30425e-07
4.31431e-07
4.32438e-07
4.33442e-07
4.34446e-07
4.36222e-07
9.60993e-07
9.67656e-07
8.66555e-07
7.04788e-07
2.16439e-07
6.1039e-07
5.65067e-08
3.92286e-07
3.93663e-07
3.94697e-07
3.95731e-07
3.96763e-07
3.97795e-07
3.98826e-07
3.99857e-07
4.00886e-07
4.01916e-07
4.02944e-07
4.03971e-07
4.04999e-07
4.06025e-07
4.0705e-07
4.08075e-07
4.09099e-07
4.10122e-07
4.11145e-07
4.12167e-07
4.13188e-07
4.14208e-07
4.15227e-07
4.16246e-07
4.17264e-07
4.18281e-07
4.19298e-07
4.20314e-07
4.21328e-07
4.22342e-07
4.23356e-07
4.24368e-07
4.25379e-07
4.2639e-07
4.274e-07
4.28409e-07
4.29418e-07
4.30425e-07
4.31431e-07
4.32438e-07
4.33442e-07
4.34446e-07
4.36222e-07
6.80926e-08
3.75295e-07
8.01724e-08
5.35627e-07
9.89057e-08
5.12985e-07
1.15676e-07
1.44861e-07
6.84324e-07
6.96172e-07
7.45709e-07
2.02535e-07
7.47247e-07
7.70805e-07
6.99699e-07
6.89804e-07
7.01025e-07
7.03905e-07
7.75017e-07
7.51917e-07
7.76055e-07
6.98912e-07
6.89414e-07
7.00489e-07
7.00021e-07
7.75406e-07
6.48001e-07
7.6999e-07
6.97986e-07
4.92033e-07
6.99394e-07
6.79264e-07
7.71929e-07
6.92704e-07
7.7329e-07
6.99389e-07
6.73935e-07
6.99978e-07
7.39131e-07
7.76044e-07
7.53454e-07
7.75984e-07
7.00024e-07
6.71275e-07
7.00158e-07
5.74544e-07
7.74403e-07
6.54594e-07
7.75815e-07
7.00103e-07
6.52374e-07
7.00511e-07
7.03959e-07
7.74127e-07
5.85062e-07
7.74857e-07
6.98144e-07
6.01399e-07
2.12881e-07
7.19237e-07
7.71785e-07
6.97344e-07
2.81641e-07
1.40457e-07
5.5685e-07
5.99888e-08
6.23408e-07
1.96988e-07
6.44312e-07
8.76074e-08
9.90253e-08
5.62045e-07
1.15766e-07
7.15698e-07
9.89892e-08
6.44731e-07
1.169e-07
2.03068e-07
7.0589e-07
7.70734e-07
7.26068e-07
2.03773e-07
6.56319e-07
7.70812e-07
7.74998e-07
7.58196e-07
7.75778e-07
7.32204e-07
7.75751e-07
7.28336e-07
7.75571e-07
7.74917e-07
6.40528e-07
7.73366e-07
6.81571e-07
7.75023e-07
7.16369e-07
7.74282e-07
7.72822e-07
7.01803e-07
7.71412e-07
6.11073e-07
7.7251e-07
6.94829e-07
7.73881e-07
7.75431e-07
7.5028e-07
7.75654e-07
7.17971e-07
7.75693e-07
7.17285e-07
7.76548e-07
7.73267e-07
6.65195e-07
7.76108e-07
6.43663e-07
7.75e-07
6.66618e-07
7.76781e-07
7.73843e-07
5.83441e-07
7.74415e-07
7.46401e-07
7.75216e-07
6.20897e-07
7.75346e-07
7.71604e-07
6.80133e-07
2.80369e-07
7.12111e-07
7.7262e-07
5.30273e-07
2.8235e-07
1.96796e-07
6.68091e-07
8.76888e-08
5.30773e-07
1.96567e-07
7.02362e-07
8.76574e-08
9.89888e-08
6.60479e-07
1.17134e-07
6.86908e-07
6.83673e-08
6.95387e-07
8.13956e-08
2.0335e-07
6.79769e-07
7.70515e-07
6.83055e-07
1.43773e-07
6.81246e-07
6.95981e-07
7.7551e-07
7.40056e-07
7.75773e-07
6.71525e-07
6.99821e-07
6.91049e-07
7.00981e-07
7.74072e-07
7.06466e-07
7.76958e-07
6.63882e-07
6.9904e-07
6.34578e-07
6.99901e-07
7.72707e-07
7.32484e-07
7.73532e-07
6.86965e-07
6.98846e-07
6.89692e-07
6.99512e-07
7.75641e-07
7.43672e-07
7.75353e-07
6.71788e-07
7.00221e-07
6.49758e-07
7.00398e-07
7.7307e-07
6.85926e-07
7.75415e-07
6.59271e-07
6.99657e-07
6.15626e-07
6.99381e-07
7.75874e-07
6.40504e-07
7.75388e-07
6.77277e-07
6.99853e-07
6.4537e-07
7.00091e-07
7.73423e-07
4.69756e-07
2.85861e-07
6.71353e-07
6.98352e-07
3.61731e-07
2.1354e-07
1.96513e-07
6.81066e-07
8.7579e-08
6.74467e-07
1.40603e-07
6.73204e-07
6.00079e-08
6.30923e-07
8.63967e-07
1.61967e-07
8.26622e-07
8.20241e-07
9.02756e-07
7.8118e-07
7.02409e-07
5.8416e-07
5.43365e-07
5.79236e-07
6.03649e-07
6.15824e-07
6.74566e-07
1.29566e-07
3.54043e-08
1.29566e-07
5.14592e-08
1.8383e-07
5.27167e-08
1.83832e-07
6.3398e-07
8.82615e-07
8.55153e-07
8.35014e-07
8.36983e-07
9.18608e-07
8.92684e-07
7.29447e-07
6.99181e-07
6.77706e-07
7.64673e-07
7.71511e-07
7.21191e-07
6.82702e-07
1.29567e-07
9.72433e-08
1.29513e-07
5.64879e-08
1.83833e-07
1.39111e-07
1.83726e-07
8.72033e-07
7.68447e-07
8.09821e-07
8.74572e-07
8.89511e-07
8.32523e-07
9.02596e-07
7.67426e-07
6.97883e-07
3.86542e-07
7.5772e-07
7.72194e-07
4.71579e-07
6.93063e-07
3.52934e-08
6.98037e-07
3.52859e-08
3.21818e-07
5.20171e-08
7.75759e-07
5.20015e-08
8.71136e-07
8.59821e-07
8.59879e-07
3.18313e-07
7.03817e-07
3.56003e-07
6.59501e-07
6.96208e-07
6.50573e-07
6.33326e-07
7.16162e-07
7.39635e-07
6.66706e-07
5.56419e-07
3.54638e-08
6.9954e-07
4.447e-08
7.76613e-07
5.24848e-08
7.71598e-07
6.59796e-08
8.64821e-07
7.65501e-07
1.33757e-07
8.17169e-07
6.37857e-07
4.16132e-07
1.78661e-07
7.5364e-07
6.9722e-07
6.488e-07
7.17446e-07
7.7111e-07
6.58461e-07
6.90154e-07
5.06057e-08
7.0027e-07
6.46245e-08
7.77259e-07
7.5443e-08
7.75183e-07
9.41349e-08
2.5496e-07
4.86416e-07
3.29696e-07
5.58167e-07
3.74998e-07
8.07742e-07
7.62161e-07
7.4627e-07
6.96573e-07
3.44942e-07
6.97309e-07
7.71988e-07
5.05639e-07
6.6899e-07
6.7046e-08
7.00367e-07
4.99202e-08
7.75147e-07
9.74765e-08
7.75001e-07
7.42207e-08
1.36916e-07
8.79619e-07
4.28437e-07
8.38518e-07
6.88183e-07
9.03303e-07
7.60419e-07
7.41336e-07
6.98266e-07
6.06288e-07
5.93745e-07
7.71024e-07
6.24188e-07
6.83582e-07
4.4025e-08
7.00631e-07
3.54377e-08
7.70948e-07
6.50047e-08
7.77169e-07
5.24364e-08
8.78032e-07
6.69861e-07
8.98168e-07
8.37446e-07
8.81437e-07
5.5682e-07
8.54255e-07
7.60917e-07
6.95987e-07
6.95656e-07
7.04095e-07
7.69232e-07
7.04102e-07
6.94831e-07
3.52749e-08
5.06727e-07
3.50555e-08
7.75679e-07
5.20014e-08
5.76729e-07
5.19791e-08
6.78735e-07
6.67135e-07
7.58703e-07
6.17685e-07
6.75145e-07
1.83308e-07
7.15325e-07
6.00421e-07
6.95675e-07
3.68745e-07
7.15155e-07
7.65897e-07
4.88091e-07
4.90408e-07
3.52087e-08
4.2903e-08
1.29419e-07
2.19872e-07
5.19792e-08
6.35616e-08
1.83535e-07
8.82966e-07
7.95015e-07
8.46375e-07
2.20331e-07
7.05975e-07
5.4883e-07
7.84926e-07
7.68424e-07
6.59632e-07
6.56392e-07
6.36269e-07
7.37655e-07
6.81548e-07
6.96793e-07
1.29567e-07
3.48062e-08
1.29566e-07
5.65128e-08
1.83833e-07
5.12911e-08
1.8383e-07
9.21371e-07
8.85111e-07
8.25877e-07
6.99472e-07
8.98204e-07
8.59865e-07
9.00079e-07
6.91226e-07
6.84941e-07
5.70712e-07
6.62648e-07
6.88689e-07
6.82011e-07
7.31005e-07
1.83825e-07
5.27719e-08
1.83827e-07
5.17714e-08
1.83825e-07
5.27133e-08
1.83828e-07
8.47893e-07
9.18882e-07
9.15647e-07
8.84793e-07
9.02197e-07
8.11988e-07
9.0222e-07
6.69346e-07
7.61617e-07
6.9325e-07
7.29989e-07
6.67568e-07
7.61148e-07
6.97161e-07
1.83828e-07
1.39128e-07
1.83722e-07
5.64527e-08
1.83829e-07
1.39085e-07
1.83722e-07
8.06869e-07
7.57324e-07
9.15273e-07
8.66664e-07
8.85188e-07
2.68917e-07
7.85364e-07
7.5772e-07
7.62845e-07
6.61415e-07
6.74177e-07
7.62974e-07
7.63769e-07
6.3003e-07
5.20166e-08
7.75467e-07
5.20013e-08
3.20931e-07
5.20167e-08
7.75822e-07
5.20013e-08
5.60514e-07
3.76905e-07
3.48174e-07
1.93273e-07
5.97315e-07
5.28308e-07
3.15958e-07
5.66091e-07
7.483e-07
4.07566e-07
7.14557e-07
6.45472e-07
7.44312e-07
4.47281e-07
5.25237e-08
7.74299e-07
6.6042e-08
7.76946e-07
5.2524e-08
7.71937e-07
6.60224e-08
4.10396e-07
6.45797e-07
1.93491e-07
5.19373e-07
5.35785e-07
4.98462e-07
3.4734e-07
7.34433e-07
7.56519e-07
5.85817e-07
6.08607e-07
7.23729e-07
7.53999e-07
5.52989e-07
7.56627e-08
7.75096e-07
9.41972e-08
7.76444e-07
7.55753e-08
7.7446e-07
9.41807e-08
5.08993e-07
8.29246e-07
6.18772e-07
7.78189e-07
5.83794e-07
8.72472e-07
6.41849e-07
7.49795e-07
7.61789e-07
7.15068e-07
7.58726e-07
7.51304e-07
7.6218e-07
7.08522e-07
9.75312e-08
7.73445e-07
7.43843e-08
7.73807e-07
9.75174e-08
7.73611e-07
7.43949e-08
8.20698e-07
9.09213e-07
8.05604e-07
8.53512e-07
8.58938e-07
8.99301e-07
9.01534e-07
7.30003e-07
7.65508e-07
3.69187e-07
5.55685e-07
7.31495e-07
7.6216e-07
3.78261e-07
6.51385e-08
7.77364e-07
5.24748e-08
7.75439e-07
6.51932e-08
7.77806e-07
5.24747e-08
8.49043e-07
6.68638e-07
9.17856e-07
8.59296e-07
7.95353e-07
4.16357e-07
8.1142e-07
7.56708e-07
7.65411e-07
5.67827e-07
7.48344e-07
7.55407e-07
7.63336e-07
5.25164e-07
5.2001e-08
5.72684e-07
5.19785e-08
7.75909e-07
5.20012e-08
5.73319e-07
5.19785e-08
7.14592e-07
2.16421e-07
5.31168e-07
2.43635e-07
4.14532e-07
5.92249e-07
3.4303e-07
5.63049e-07
7.31726e-07
4.72207e-07
6.59738e-07
5.80577e-07
7.17401e-07
4.68706e-07
5.19787e-08
6.37012e-08
1.83529e-07
2.19905e-07
5.19788e-08
6.364e-08
1.83528e-07
6.90033e-07
4.70812e-07
4.56783e-07
1.50002e-07
6.69238e-07
2.96837e-07
3.8496e-07
7.47592e-07
7.21886e-07
7.21973e-07
4.67811e-07
7.64244e-07
7.08912e-07
6.81926e-07
1.83828e-07
5.15849e-08
1.83825e-07
5.6548e-08
1.83828e-07
5.13209e-08
1.83825e-07
9.02423e-07
9.20144e-07
8.56649e-07
6.6732e-07
8.90557e-07
8.74661e-07
8.41665e-07
7.49891e-07
7.5891e-07
7.47219e-07
7.50949e-07
7.49473e-07
7.19531e-07
7.61848e-07
1.8383e-07
5.26597e-08
1.83832e-07
3.48583e-08
1.29566e-07
3.53455e-08
1.29567e-07
8.96629e-07
8.65486e-07
8.87017e-07
8.93595e-07
8.43975e-07
7.29809e-07
8.00187e-07
6.97321e-07
7.67834e-07
6.94269e-07
7.17237e-07
6.78432e-07
7.69387e-07
6.98827e-07
1.83833e-07
1.39064e-07
1.83726e-07
3.8236e-08
1.29567e-07
9.71875e-08
1.29513e-07
8.2343e-07
2.84104e-07
5.71048e-07
7.2241e-07
7.47344e-07
2.86253e-07
6.18332e-07
7.67477e-07
7.76228e-07
6.90637e-07
7.59332e-07
7.64907e-07
7.68977e-07
6.70643e-07
5.2017e-08
7.7568e-07
5.20016e-08
2.4309e-07
3.51956e-08
6.98145e-07
3.5286e-08
6.0787e-07
6.3734e-07
4.33351e-07
3.94186e-07
6.16987e-07
6.3721e-07
6.2637e-07
5.99712e-07
7.42699e-07
4.65404e-07
7.04123e-07
6.32997e-07
7.45018e-07
4.64929e-07
5.24851e-08
7.75209e-07
6.59142e-08
7.01322e-07
3.54625e-08
7.00037e-07
4.44665e-08
2.92499e-07
5.69084e-07
5.24883e-07
6.69712e-07
4.20693e-07
6.34041e-07
6.33286e-07
7.68316e-07
7.59717e-07
6.25308e-07
7.36419e-07
7.66563e-07
7.63138e-07
6.75642e-07
7.53979e-08
7.74255e-07
9.41101e-08
7.00484e-07
5.05749e-08
7.00483e-07
6.45983e-08
7.19139e-07
8.88398e-07
8.29347e-07
6.0732e-07
6.08564e-07
6.50122e-07
8.73426e-07
7.67364e-07
7.72185e-07
6.13601e-07
7.16537e-07
7.63985e-07
7.71438e-07
6.365e-07
9.74538e-08
7.74362e-07
7.42088e-08
7.00974e-07
6.70293e-08
7.00407e-07
4.99264e-08
8.9826e-07
7.93202e-07
8.55022e-07
8.84536e-07
8.73935e-07
7.74093e-07
8.74456e-07
7.53614e-07
7.68697e-07
6.54634e-07
6.7903e-07
7.50838e-07
7.62273e-07
7.56381e-07
6.4976e-08
7.77672e-07
5.24367e-08
7.00556e-07
4.39731e-08
7.00616e-07
3.5437e-08
6.77132e-07
3.80665e-07
8.80603e-07
6.05957e-07
5.66434e-07
6.02165e-07
8.22603e-07
7.6915e-07
7.65418e-07
4.5458e-07
7.12413e-07
7.67742e-07
7.65542e-07
4.40224e-07
5.20014e-08
5.776e-07
5.1979e-08
6.98134e-07
3.52633e-08
5.06657e-07
3.50555e-08
3.14116e-07
4.59471e-07
2.84747e-07
7.14901e-07
4.06033e-07
7.681e-07
4.62537e-07
5.29731e-07
7.33908e-07
4.0577e-07
7.14145e-07
5.1764e-07
7.39333e-07
3.95777e-07
5.19792e-08
6.33603e-08
1.83533e-07
1.58367e-07
3.51414e-08
4.28788e-08
1.29419e-07
5.77456e-07
2.09207e-07
4.23534e-07
5.7265e-07
7.85395e-07
3.06839e-07
6.87058e-07
7.59166e-07
7.23135e-07
6.58627e-07
7.0912e-07
7.49336e-07
7.3197e-07
6.73845e-07
1.83833e-07
5.13055e-08
1.8383e-07
3.82149e-08
1.29567e-07
3.48243e-08
1.29566e-07
7.64258e-07
6.92626e-07
6.00869e-08
9.87724e-08
8.75468e-08
6.90942e-07
7.667e-07
5.03159e-07
2.09845e-07
6.57111e-07
4.65071e-07
3.22901e-07
7.14789e-07
4.33098e-07
7.01373e-07
7.15785e-08
6.92931e-07
1.15535e-07
1.03601e-07
7.67047e-07
6.28561e-07
7.03467e-07
5.37893e-07
6.67249e-07
5.29651e-07
5.69892e-07
6.97386e-07
6.75605e-07
7.63818e-07
9.88433e-08
7.60589e-07
8.76808e-08
8.76229e-08
7.62334e-07
7.65189e-07
4.80731e-07
4.60521e-07
3.3149e-07
6.92576e-07
3.34629e-07
6.99678e-07
4.41103e-07
6.95657e-07
1.15578e-07
1.03264e-07
7.65617e-07
1.03306e-07
7.66105e-07
6.88377e-07
7.72363e-07
6.96895e-07
2.42736e-07
2.02329e-07
7.7184e-07
3.22531e-07
6.98347e-07
7.27985e-07
6.66858e-07
6.94465e-07
7.33938e-07
7.3149e-07
7.66704e-07
6.66854e-07
7.76871e-07
6.91101e-07
7.00132e-07
7.71685e-07
7.65438e-07
7.75732e-07
7.00251e-07
7.08013e-07
7.69466e-07
7.62994e-07
6.74371e-07
7.65203e-07
7.06308e-07
6.9058e-07
7.69531e-07
2.02224e-07
7.71613e-07
3.19758e-07
7.71539e-07
3.20507e-07
7.66344e-07
7.18954e-07
6.92018e-07
7.26613e-07
7.5982e-07
7.21514e-07
7.62208e-07
7.1769e-07
7.75145e-07
7.71395e-07
7.65955e-07
7.74775e-07
7.65782e-07
7.75022e-07
7.76489e-07
7.70413e-07
7.00692e-07
7.00983e-07
7.757e-07
7.73754e-07
7.76821e-07
6.98193e-07
7.536e-07
5.51155e-07
7.00164e-07
7.6411e-07