/*--------------------------------*- C++ -*----------------------------------*\
| =========                 |                                                 |
| \\      /  F ield         | OpenFOAM: The Open Source CFD Toolbox           |
|  \\    /   O peration     | Version:  5.0                                   |
|   \\  /    A nd           | Web:      www.OpenFOAM.org                      |
|    \\/     M anipulation  |                                                 |
\*---------------------------------------------------------------------------*/
FoamFile
{
    version     2.0;
    format      ascii;
    class       volVectorField;
    location    "3.1";
    object      U;
}
// * * * * * * * * * * * * * * * * * * * * * * * * * * * * * * * * * * * * * //

dimensions      [0 1 -1 0 0 0 0];

internalField   nonuniform List<vector> 
8577
(
(-0.000333421 -0.00508767 1.39828e-05)
(0.00104609 -0.00474497 -7.61175e-05)
(7.24004e-05 0.00346905 -7.1984e-05)
(0.00208354 -0.00396029 0.000488608)
(0.00567118 0.00862094 -0.000334572)
(-0.000257879 0.00181679 -0.000825862)
(0.000461925 1.04681e-05 1.5119e-05)
(0.000897827 -6.27939e-06 -1.95769e-06)
(0.000834541 -5.15049e-06 -1.55732e-07)
(0.000822523 -4.53793e-06 7.73835e-08)
(0.000816914 -3.24573e-06 3.97292e-08)
(0.000814566 -2.32711e-06 7.24701e-08)
(0.000814029 -1.52215e-06 1.41953e-09)
(0.000812887 -7.3218e-07 7.36198e-08)
(0.000811445 -5.55327e-07 5.11623e-08)
(0.000810298 -4.84004e-07 2.88073e-08)
(0.000809087 -2.30517e-07 5.0923e-08)
(0.000807623 7.79193e-08 5.10981e-08)
(0.000805953 -1.79872e-09 6.52051e-08)
(0.000804578 -1.5804e-07 8.99326e-08)
(0.000803197 -3.2932e-07 5.62463e-08)
(0.000801891 -1.24503e-07 5.75863e-08)
(0.000800369 -1.11204e-07 3.33561e-08)
(0.000798713 -3.38518e-08 1.6024e-07)
(0.000797177 -7.94013e-08 5.14682e-08)
(0.000795729 -6.60855e-08 4.43981e-09)
(0.00079426 -5.84954e-08 5.02545e-08)
(0.000792821 -2.12563e-08 4.76241e-08)
(0.000791224 1.62894e-07 8.95606e-08)
(0.000789656 -1.51819e-07 6.03409e-08)
(0.000788117 -5.31571e-07 8.89553e-08)
(0.00078646 -5.7751e-07 -5.53156e-08)
(0.000785047 -4.6963e-07 8.62204e-08)
(0.000783887 -1.03583e-07 5.94759e-08)
(0.000782542 -3.0618e-09 4.51767e-08)
(0.000780949 2.70876e-08 4.54462e-08)
(0.000779304 1.17457e-07 1.54118e-07)
(0.000777491 2.13069e-07 3.97439e-08)
(0.000776689 5.98179e-07 7.60258e-08)
(0.000775745 1.93781e-07 4.62763e-08)
(0.000773902 5.59647e-08 2.19935e-08)
(0.000772417 5.82384e-08 7.33965e-08)
(0.000771413 -1.34927e-07 2.09317e-08)
(0.000769597 -4.21088e-07 -1.05697e-08)
(0.000767744 -2.35711e-07 3.58017e-08)
(0.000766401 -1.25842e-07 5.60052e-08)
(0.000765244 3.3442e-08 4.86898e-08)
(0.000764209 -1.08993e-07 6.33823e-08)
(0.000762457 -3.78403e-07 4.61316e-08)
(0.000760876 -3.11488e-07 1.05736e-08)
(0.00179144 -0.000365903 -0.000166683)
(0.00197205 0.00204298 -0.000211626)
(-0.000254815 0.000803401 -0.000100933)
(0.00102996 0.00497688 0.000252531)
(-0.00118331 0.00748216 -9.18659e-05)
(0.00359349 -0.00492699 -7.99174e-05)
(0.000435156 -9.93312e-06 3.5533e-05)
(0.000842085 2.49415e-05 -2.27856e-06)
(0.000821541 2.3982e-05 -9.25701e-08)
(0.000816358 -4.46451e-08 5.14167e-08)
(0.000816132 -1.90871e-06 5.39732e-08)
(0.000814993 -2.78303e-06 4.89214e-08)
(0.000814353 -2.35427e-06 5.31224e-08)
(0.000813287 -2.07043e-06 4.83449e-08)
(0.000811956 -1.42498e-06 5.18336e-08)
(0.000810802 -1.05792e-06 6.53037e-08)
(0.000809618 -7.09104e-07 4.92828e-08)
(0.000807913 -6.91315e-07 6.36972e-08)
(0.000806111 -1.61735e-07 -3.13235e-08)
(0.000804542 -6.92065e-08 2.85473e-08)
(0.000803348 8.86779e-08 1.10566e-07)
(0.000801914 1.21432e-08 5.98563e-08)
(0.000800239 -1.39179e-08 3.71259e-08)
(0.000798736 -4.48584e-08 7.1393e-08)
(0.000797221 8.69563e-09 4.20787e-08)
(0.000795695 -6.70688e-08 4.99543e-08)
(0.000794176 -1.88331e-07 3.47289e-08)
(0.000792845 -2.49967e-07 4.9255e-08)
(0.000791155 -5.81295e-07 7.06864e-08)
(0.000789231 -5.29911e-07 8.33964e-08)
(0.000787875 -3.10219e-07 -7.82878e-08)
(0.000786569 -1.19586e-07 1.41984e-08)
(0.000785475 4.86483e-07 1.43305e-07)
(0.00078428 4.78805e-07 9.5657e-08)
(0.00078255 2.45828e-07 4.54616e-08)
(0.00078104 2.19707e-07 3.86823e-08)
(0.000779714 2.21818e-07 4.05827e-08)
(0.000778537 4.13477e-07 1.70028e-09)
(0.000776571 7.28552e-07 1.79592e-08)
(0.00077466 2.36216e-07 4.60991e-07)
(0.000773543 8.84156e-08 6.24999e-08)
(0.000772231 -5.50005e-08 -3.8269e-09)
(0.000770484 -1.9161e-07 4.67029e-08)
(0.000769422 -5.57978e-07 1.15632e-07)
(0.000768405 -9.66298e-08 5.66482e-08)
(0.000766834 -5.59751e-09 5.54006e-08)
(0.000765367 3.55466e-07 5.56257e-08)
(0.000763773 7.4187e-08 -6.66852e-10)
(0.000762391 -8.66216e-08 -7.33923e-08)
(0.000761383 -1.76584e-07 1.09964e-07)
(0.0123819 0.00309465 -0.000822442)
(0.00960012 -3.74368e-05 0.000899599)
(0.000442922 0.00844018 -0.000346814)
(0.00881798 -0.00824408 -0.000522891)
(0.0132394 0.0129695 0.000383502)
(-0.00147158 0.00920084 -0.000186497)
(0.00114744 0.000201196 -1.36543e-05)
(0.000400678 5.21939e-06 -2.67089e-07)
(0.000837078 -1.02781e-06 -1.45586e-06)
(0.000790473 -1.09065e-05 -4.3547e-07)
(0.000813603 -7.34181e-06 2.07283e-07)
(0.000814088 -5.54367e-06 5.01928e-08)
(0.000814975 -3.80344e-06 6.39148e-08)
(0.000814087 -2.5741e-06 5.66962e-08)
(0.000812736 -1.65412e-06 5.4804e-08)
(0.00081121 -1.01122e-06 5.3141e-08)
(0.000809558 -7.83216e-07 5.82831e-08)
(0.000808316 -6.46605e-07 3.87476e-08)
(0.000806736 -6.09479e-07 1.72841e-07)
(0.000804893 -2.74827e-07 3.80232e-08)
(0.0008033 -1.22408e-07 2.49985e-08)
(0.000801763 -1.66362e-07 4.7344e-08)
(0.000800298 -1.17785e-07 6.23553e-08)
(0.000798741 -1.31814e-07 3.72348e-08)
(0.000797149 -1.84533e-07 6.51992e-08)
(0.000795483 -1.30308e-07 7.52522e-08)
(0.000794033 -1.04461e-07 5.7562e-08)
(0.000792334 -8.51919e-08 5.39802e-08)
(0.000790878 -1.80995e-07 -3.85677e-09)
(0.000790001 2.16383e-07 -6.78913e-09)
(0.000788633 3.87351e-07 2.11402e-07)
(0.000787456 4.47793e-07 6.40983e-08)
(0.000785793 5.07254e-07 -2.94635e-08)
(0.000783583 2.85073e-07 1.6626e-08)
(0.000782216 1.41668e-07 9.20443e-08)
(0.000780918 1.81745e-07 5.21884e-08)
(0.000779544 1.17974e-07 8.65975e-08)
(0.00077812 2.66492e-08 5.48841e-08)
(0.000776463 -1.78364e-07 2.40268e-08)
(0.000774942 6.64038e-08 4.9276e-08)
(0.000773537 5.63283e-08 7.75705e-08)
(0.000772068 -5.38166e-08 3.55267e-08)
(0.000770787 2.11299e-07 1.22756e-07)
(0.000769719 5.55868e-07 9.33074e-08)
(0.000768438 3.09687e-07 7.03538e-08)
(0.000766967 2.91762e-07 5.20983e-08)
(0.000765344 3.00854e-07 1.24115e-07)
(0.000763656 4.30153e-07 7.40594e-08)
(0.000762148 2.52945e-07 4.5438e-08)
(0.000761201 1.50668e-07 1.11726e-07)
(0.00153261 0.00177208 -3.53519e-05)
(0.00876464 -0.000529632 -2.37105e-05)
(0.0098312 0.0073899 0.000363378)
(-0.0186626 -0.00508215 -0.00140487)
(0.0180511 -0.00384523 -0.014156)
(-0.00379083 0.000695901 -0.00015893)
(-0.000604475 -0.00120974 -7.41663e-06)
(0.000425746 -6.68153e-05 9.38904e-07)
(0.000860223 -5.85694e-05 -1.41171e-06)
(0.000808647 -2.75852e-05 -1.89546e-07)
(0.000822997 -1.50092e-05 1.76088e-07)
(0.000819521 -8.11415e-06 3.95082e-08)
(0.000818134 -4.76126e-06 6.16122e-08)
(0.000816018 -2.65449e-06 5.28036e-08)
(0.000813939 -1.35625e-06 4.92049e-08)
(0.000811909 -7.33669e-07 4.85659e-08)
(0.000810087 -5.18572e-07 4.84657e-08)
(0.00080814 -2.44876e-07 8.08438e-08)
(0.000806583 -4.4146e-07 7.19187e-08)
(0.000805157 -4.41697e-07 2.91626e-08)
(0.000803487 -3.62893e-07 6.08628e-08)
(0.000801923 -2.67617e-07 5.17189e-08)
(0.000800284 -2.77615e-07 -9.44976e-09)
(0.000798654 -1.42742e-07 6.86947e-08)
(0.000797224 -1.09738e-07 7.6136e-08)
(0.000795796 7.68332e-08 7.22912e-08)
(0.000794232 2.5447e-07 6.50457e-08)
(0.00079275 4.07986e-07 6.01127e-08)
(0.000791531 7.12339e-07 4.07037e-08)
(0.000789939 4.1894e-07 5.24678e-08)
(0.00078816 3.49937e-07 7.24437e-08)
(0.000786714 4.88083e-07 5.68591e-08)
(0.000785267 -6.49575e-08 4.36114e-08)
(0.000783821 -4.82869e-08 5.06491e-08)
(0.000782419 6.0526e-08 1.0472e-08)
(0.000781009 3.37752e-08 4.03364e-08)
(0.00077952 -3.79485e-08 3.93154e-08)
(0.000778167 -1.08675e-07 5.44607e-08)
(0.000776622 -2.08663e-07 1.42466e-08)
(0.000774954 -9.53591e-08 3.65873e-08)
(0.000773392 1.79771e-08 6.11994e-08)
(0.000772424 2.80711e-07 1.05163e-07)
(0.000771243 2.75983e-07 1.4484e-07)
(0.000769541 3.31047e-07 -1.78018e-09)
(0.00076807 4.55363e-08 2.60469e-08)
(0.00076682 3.00582e-08 4.19289e-08)
(0.000765537 2.63811e-08 7.36658e-08)
(0.000763711 2.96138e-07 4.90593e-08)
(0.000762037 1.63292e-07 4.72299e-08)
(0.000760878 2.69035e-07 1.53809e-07)
(0.00633626 -0.00504364 -0.000225301)
(0.00215798 0.00911808 5.4902e-05)
(-0.0050845 0.000924914 0.00298089)
(-0.0202843 0.00867968 -0.000529331)
(-0.0042122 -0.0072782 0.000491799)
(0.00237183 -0.00146564 0.000239406)
(0.000963065 -0.000216578 -9.61592e-06)
(0.000432157 -8.51216e-05 1.57376e-05)
(0.00091343 -4.07608e-05 -2.28412e-06)
(0.000845353 -1.74654e-05 -3.72741e-07)
(0.000838135 -8.66296e-06 9.67545e-08)
(0.000827011 -4.293e-06 4.15207e-07)
(0.000821865 -1.95137e-06 1.06862e-07)
(0.000818382 -1.15303e-06 4.87284e-08)
(0.000815159 -9.06033e-07 3.51782e-08)
(0.00081227 -6.35682e-07 2.45961e-08)
(0.000810176 -3.34024e-07 4.94784e-08)
(0.000808417 -2.75363e-07 4.9173e-08)
(0.000806494 -6.68654e-08 6.3297e-08)
(0.000804996 1.00492e-08 -5.93681e-08)
(0.000803521 -4.43452e-07 6.90292e-08)
(0.000801873 -1.32101e-09 3.16604e-08)
(0.000800457 2.91488e-08 5.6295e-08)
(0.000798953 9.80525e-08 1.03941e-07)
(0.000797424 1.77856e-07 7.74388e-08)
(0.000795938 -6.56965e-08 5.73583e-08)
(0.000794444 1.98802e-07 6.74054e-08)
(0.0007929 3.37248e-07 6.00807e-08)
(0.000790886 5.24232e-07 2.30546e-07)
(0.00078954 6.65121e-07 4.25395e-08)
(0.000788713 3.28419e-07 5.63402e-08)
(0.000786932 2.74262e-08 3.96939e-08)
(0.00078512 1.59117e-07 3.30114e-08)
(0.000783738 1.01341e-07 4.88799e-08)
(0.000782318 1.67145e-07 4.87791e-08)
(0.000780794 1.95576e-08 4.87881e-08)
(0.000779367 1.15995e-08 5.14646e-08)
(0.000777909 -6.64525e-08 5.70612e-08)
(0.000776482 -1.66539e-07 4.18642e-08)
(0.000775227 -1.54006e-07 -8.91598e-09)
(0.000774007 -2.85437e-09 4.54634e-08)
(0.000772388 2.70515e-07 1.72512e-07)
(0.000770847 1.10146e-08 -5.60311e-09)
(0.000769428 -3.3495e-08 4.8313e-08)
(0.00076806 -1.46899e-07 6.23535e-08)
(0.000766942 -2.38247e-07 4.97162e-08)
(0.000765676 -5.49768e-07 9.72886e-09)
(0.000763826 -8.87153e-07 4.5028e-08)
(0.000762108 -3.45481e-07 4.82939e-08)
(0.000760664 7.85382e-09 5.06402e-08)
(0.0195754 0.00142964 -0.000490655)
(-0.00106519 -0.0110376 -0.0042344)
(0.00824831 -0.0409327 0.00282502)
(0.00261344 0.00510696 0.000192481)
(-0.0163509 -0.00751399 4.87171e-05)
(0.00691043 0.00539054 -1.8262e-05)
(0.000853389 0.000691021 1.11685e-05)
(0.000413297 -6.74075e-06 1.42315e-05)
(0.000919727 2.75441e-05 -2.22975e-06)
(0.000848539 1.33346e-05 -3.39248e-07)
(0.000839542 7.55504e-06 1.04037e-07)
(0.000827952 4.22141e-06 1.3176e-08)
(0.000822081 2.68114e-06 7.96387e-08)
(0.000817337 1.439e-06 4.44077e-08)
(0.000814593 5.85944e-07 7.50453e-08)
(0.000812629 2.58766e-07 7.72173e-08)
(0.000810541 2.23426e-07 5.0009e-08)
(0.000808475 1.33232e-07 6.40202e-08)
(0.00080694 1.33824e-07 2.81856e-08)
(0.000804686 4.26299e-07 8.64288e-08)
(0.000803473 7.74483e-07 1.47661e-07)
(0.000802514 4.2707e-07 3.16283e-07)
(0.000800408 3.22269e-07 8.8031e-08)
(0.000798839 2.3073e-07 6.84877e-08)
(0.000797019 1.87359e-07 6.40074e-08)
(0.000795822 3.10605e-07 -1.56106e-08)
(0.000794736 7.10117e-08 4.04365e-08)
(0.000793154 -5.84501e-08 6.09741e-09)
(0.000791938 1.28673e-07 2.43711e-08)
(0.000789691 -5.73036e-09 -9.50141e-08)
(0.000787361 -1.68284e-07 2.70425e-08)
(0.0007865 -2.43186e-07 1.73377e-07)
(0.000785359 -2.2377e-07 1.65458e-08)
(0.000783829 -1.17949e-07 5.61915e-08)
(0.000782316 -1.30097e-07 -3.00338e-08)
(0.000780814 -2.08039e-08 1.00756e-07)
(0.000779413 5.27962e-08 5.66284e-08)
(0.000777945 8.52534e-08 5.76322e-08)
(0.000776513 1.62514e-07 6.34624e-08)
(0.000775159 4.89571e-08 -7.13943e-08)
(0.000773923 1.77302e-07 3.25612e-08)
(0.00077244 9.10974e-08 1.25167e-09)
(0.000770863 1.16299e-07 3.84948e-08)
(0.000769344 -3.31879e-08 5.59335e-08)
(0.000767816 -2.93772e-08 6.21806e-08)
(0.00076632 -1.94623e-07 4.52075e-08)
(0.00076473 -5.25648e-07 -6.8038e-08)
(0.000763971 -7.31372e-07 6.94377e-08)
(0.000763158 -4.80058e-07 9.12742e-08)
(0.000761301 -3.25215e-07 1.23877e-07)
(-0.00855949 -0.0125835 0.0183972)
(0.000179553 -0.0120286 0.000840911)
(0.0281167 0.0290299 0.00223586)
(0.013906 -0.0044869 0.000442353)
(0.0125673 -0.00171418 -0.000198801)
(-0.00570638 -0.00411807 -0.000785683)
(0.000490012 -0.000695263 6.44612e-05)
(0.000348523 2.3288e-05 4.82151e-06)
(0.000877673 5.79295e-05 -1.71081e-06)
(0.000820254 2.9711e-05 -3.62704e-07)
(0.000826621 1.66838e-05 1.54999e-07)
(0.000820847 9.46223e-06 3.47831e-08)
(0.000818346 5.28905e-06 5.24686e-08)
(0.000815738 3.20866e-06 4.98911e-08)
(0.00081367 2.14835e-06 5.37032e-08)
(0.000811809 1.39336e-06 5.25585e-08)
(0.000810014 8.15309e-07 5.13119e-08)
(0.000808302 5.66284e-07 4.98989e-08)
(0.000806857 5.4468e-07 5.16327e-08)
(0.000805792 3.69223e-07 4.84907e-08)
(0.000803517 7.95623e-07 -3.41152e-08)
(0.000801304 2.25301e-07 4.555e-08)
(0.000800209 1.89534e-07 -2.75846e-08)
(0.000798783 1.31816e-07 4.49699e-08)
(0.000797522 1.57823e-07 -6.46577e-09)
(0.000795791 3.3062e-07 1.04989e-07)
(0.000793982 -3.12874e-08 4.57941e-08)
(0.000792973 -3.19432e-07 4.26865e-08)
(0.000790953 -9.00467e-07 -5.21942e-08)
(0.000789171 -1.1306e-06 1.06076e-07)
(0.000788419 -6.90705e-07 3.94408e-08)
(0.000786867 -1.77611e-07 8.47205e-08)
(0.000785279 -1.53411e-07 4.54009e-08)
(0.000783858 -9.06035e-08 7.58389e-08)
(0.00078244 -1.15644e-07 7.35685e-08)
(0.000781024 -3.1807e-09 7.44811e-08)
(0.000779499 2.38703e-08 4.88923e-08)
(0.000778045 1.24819e-07 4.2585e-08)
(0.000776436 1.10407e-07 3.68339e-08)
(0.000775244 3.03933e-07 -6.25786e-10)
(0.000774058 1.19717e-07 4.23751e-08)
(0.000772311 -4.6056e-08 -3.77064e-09)
(0.000770692 -1.56143e-07 5.31819e-08)
(0.000769246 -2.17308e-07 5.50609e-08)
(0.00076786 -8.48677e-08 3.87969e-08)
(0.000766324 -1.27187e-08 4.94656e-08)
(0.000765009 -7.89734e-09 7.57179e-08)
(0.000763889 1.54122e-07 4.761e-08)
(0.000762626 -2.17207e-07 3.69029e-08)
(0.000761668 -2.94888e-07 4.97273e-08)
(0.0106746 0.0171822 -0.000314626)
(-0.0121134 0.00813665 0.000659439)
(0.00262683 0.00827417 -7.17236e-05)
(0.0280265 0.00565134 0.00155365)
(-0.0187843 -0.00506837 0.000992307)
(0.00147928 0.000323674 0.000198294)
(0.000961452 0.000384683 5.39619e-05)
(0.000445102 5.40594e-05 -4.97516e-07)
(0.000841186 4.47904e-05 -1.50142e-06)
(0.0007963 2.51959e-05 -5.27355e-07)
(0.000814005 1.45174e-05 1.36447e-07)
(0.000813574 8.68314e-06 2.12415e-08)
(0.000814184 5.24467e-06 5.08596e-08)
(0.000813363 3.14775e-06 4.70199e-08)
(0.000812294 2.0018e-06 4.82653e-08)
(0.000810943 1.31244e-06 4.94206e-08)
(0.000809494 8.64305e-07 9.04934e-08)
(0.000808129 6.36138e-07 1.30095e-07)
(0.000806688 5.10122e-07 1.09546e-07)
(0.000804994 1.87333e-07 3.17886e-08)
(0.000803289 -2.74559e-07 4.43929e-08)
(0.000801753 6.02504e-08 6.12967e-08)
(0.000800289 8.17518e-08 3.09834e-08)
(0.000798798 7.59668e-08 4.816e-08)
(0.000797266 -2.83535e-08 6.18811e-08)
(0.000795584 -2.67698e-07 7.59046e-08)
(0.000793923 -9.58047e-08 -1.02402e-07)
(0.000792071 -8.08621e-08 6.40027e-08)
(0.00079093 -3.30389e-07 1.52754e-07)
(0.00078996 2.62067e-07 4.39746e-08)
(0.000788557 3.59976e-07 9.49338e-08)
(0.000787175 1.16243e-07 2.77336e-08)
(0.000785469 1.37208e-07 4.91482e-08)
(0.000783878 1.72082e-07 4.67037e-08)
(0.000782426 9.41924e-08 4.56219e-08)
(0.000780989 -2.87957e-08 4.17875e-08)
(0.000779573 -6.24298e-08 5.73029e-08)
(0.000778053 -1.53568e-07 4.47984e-08)
(0.000776736 -2.70884e-09 4.25189e-08)
(0.000775169 1.34687e-07 1.11138e-07)
(0.000773484 -9.69019e-08 1.66603e-07)
(0.000772096 -1.23124e-07 4.25868e-08)
(0.000770651 -1.90411e-07 1.61068e-08)
(0.000769435 -6.322e-08 4.73451e-08)
(0.000768073 -6.06278e-08 4.41735e-08)
(0.000766417 9.92723e-08 4.60352e-08)
(0.00076494 4.62352e-07 4.16771e-08)
(0.00076371 3.22961e-07 5.33864e-08)
(0.000762605 1.7369e-07 5.15501e-08)
(0.00076194 -3.52621e-08 1.48026e-09)
(-0.000627651 0.000842496 -9.11355e-05)
(0.00770482 -0.000218958 -0.000148662)
(0.0073078 0.00109787 -0.000432703)
(-0.00707941 -0.00178651 -0.000127631)
(-0.0147666 -0.0349264 0.000622043)
(0.000535075 0.0150251 -0.000382027)
(0.000926325 3.75309e-05 -2.48881e-05)
(0.000371197 2.6255e-05 3.46691e-07)
(0.000808942 -1.15996e-05 -1.06628e-06)
(0.000782125 3.20032e-06 -3.30156e-07)
(0.000805766 2.56694e-06 1.864e-07)
(0.000809125 2.7016e-06 4.38536e-08)
(0.000811345 1.98793e-06 5.11658e-08)
(0.000811635 1.25066e-06 5.44432e-08)
(0.000811345 9.67131e-07 5.40396e-08)
(0.000810367 7.37549e-07 9.33496e-08)
(0.000809156 5.32448e-07 4.72645e-08)
(0.00080785 2.77764e-07 1.54677e-09)
(0.00080629 1.33463e-07 -3.83072e-08)
(0.000804809 5.35939e-08 6.31259e-08)
(0.000803357 9.95575e-08 5.08542e-08)
(0.000801749 6.68848e-08 5.64857e-08)
(0.000800228 1.03057e-08 5.48646e-08)
(0.000798645 -6.42033e-08 5.16099e-08)
(0.000797094 -7.17442e-08 4.81994e-08)
(0.000795709 -6.853e-08 3.8537e-08)
(0.000794217 -4.55816e-09 -7.50725e-10)
(0.000792682 8.86315e-08 4.78348e-08)
(0.000791382 3.94337e-07 8.73407e-08)
(0.000790033 4.00911e-07 1.57314e-08)
(0.000788235 5.06506e-07 2.65176e-09)
(0.000786586 2.79901e-07 4.64387e-08)
(0.000785347 -4.33301e-08 1.15977e-08)
(0.000783803 -1.92227e-07 6.31441e-08)
(0.000782189 -1.90108e-07 5.50701e-08)
(0.000780828 -2.2521e-07 6.73678e-08)
(0.000779344 -2.70901e-07 -8.37277e-08)
(0.00077812 -2.98084e-07 5.90189e-08)
(0.000776796 -3.63683e-07 7.85973e-08)
(0.000775126 -4.10113e-07 3.65819e-08)
(0.000773736 -2.29156e-07 1.78106e-08)
(0.000772196 -2.28881e-07 2.78769e-09)
(0.000770768 6.87569e-08 7.93043e-08)
(0.00076941 1.16023e-07 4.06194e-08)
(0.000768063 1.57791e-07 6.68177e-08)
(0.000766977 8.50467e-08 2.41302e-08)
(0.000765286 2.23369e-07 2.53783e-08)
(0.000763525 4.11872e-07 4.14776e-08)
(0.000762177 6.88145e-07 -7.30013e-08)
(0.000761493 4.47854e-07 8.68194e-08)
(-0.00833389 -0.00302581 0.000430022)
(0.00109285 -0.005176 -0.000468538)
(0.00455299 -0.000912437 0.000404405)
(0.0106608 0.0143008 -0.000131447)
(-0.0122683 0.0385917 -0.00792931)
(0.0195554 0.000915418 0.000440156)
(0.000350558 -2.812e-05 2.6814e-05)
(0.000855712 -5.15959e-05 -1.99916e-06)
(0.000818144 -3.75097e-05 -4.00608e-07)
(0.000813852 -1.0904e-05 7.06403e-08)
(0.000813288 -5.15453e-06 5.32316e-08)
(0.000812787 -2.00732e-06 3.53925e-08)
(0.000812326 -8.10254e-07 6.56921e-08)
(0.000812058 1.38172e-07 5.99539e-08)
(0.000811634 1.93496e-07 5.22849e-08)
(0.000810387 2.20387e-07 7.3152e-08)
(0.000808911 1.39946e-07 5.17233e-08)
(0.000807625 1.66822e-07 1.0238e-07)
(0.000806404 -4.07513e-08 7.24155e-08)
(0.00080495 -1.02729e-07 5.21586e-08)
(0.000803305 -2.25709e-07 1.62852e-08)
(0.000801641 -2.31847e-07 5.97239e-08)
(0.000800126 -1.12487e-07 5.3834e-08)
(0.000798697 -1.19096e-07 4.81547e-08)
(0.000797262 -5.79635e-08 5.89836e-08)
(0.00079567 -5.26713e-08 5.43618e-08)
(0.00079412 -4.13454e-08 5.60465e-08)
(0.000792569 -1.87074e-08 4.77877e-08)
(0.000791318 7.06719e-08 5.7824e-08)
(0.000790097 -1.45366e-07 1.91345e-08)
(0.000788403 -2.3141e-07 -3.0678e-08)
(0.000786486 -2.41554e-07 7.66701e-09)
(0.000784879 -3.34964e-07 6.68041e-08)
(0.000783696 -4.84651e-07 1.60168e-07)
(0.000782386 -2.7045e-07 2.46331e-07)
(0.00078089 -2.03883e-07 6.82121e-08)
(0.000779483 -1.74236e-07 4.2946e-08)
(0.000777939 -2.36488e-07 5.13042e-08)
(0.000776599 -6.79693e-07 5.51739e-08)
(0.000775341 -3.24502e-07 5.94032e-08)
(0.000773714 -1.86793e-07 6.17061e-08)
(0.00077247 -1.93685e-07 9.369e-08)
(0.000771082 -1.02603e-08 6.78093e-08)
(0.000769545 3.23339e-07 3.21978e-08)
(0.000768033 1.41099e-07 2.16392e-08)
(0.000766496 7.08896e-08 3.94627e-08)
(0.000765344 -3.18551e-07 2.77613e-08)
(0.000764286 3.80848e-08 3.20499e-08)
(0.000762636 2.29698e-07 1.30855e-08)
(0.000760523 2.68027e-07 6.74189e-08)
(0.0073886 0.00339519 -3.84091e-05)
(0.00281202 0.000931998 -0.000281236)
(0.00441347 0.00126802 -0.000141471)
(0.00274108 0.00111655 0.000722285)
(0.00744705 -0.000318191 0.00200213)
(0.00824222 0.00165654 0.00246685)
(0.00162502 8.47819e-05 4.18438e-05)
(0.00147594 -2.13554e-05 3.86868e-07)
(0.00138017 -1.54739e-05 3.43974e-07)
(0.00136543 -1.18387e-05 3.5766e-07)
(0.00135883 -8.06854e-06 2.86131e-07)
(0.00135635 -5.55293e-06 3.45314e-07)
(0.00135619 -3.60689e-06 2.61488e-07)
(0.00135476 -1.93119e-06 3.74853e-07)
(0.00135267 -1.35438e-06 3.49102e-07)
(0.00135091 -1.0401e-06 2.89786e-07)
(0.00134897 -5.52214e-07 3.38738e-07)
(0.00134664 -1.69595e-08 3.12381e-07)
(0.0013439 -1.2595e-07 4.03637e-07)
(0.00134159 -3.21273e-07 3.17255e-07)
(0.00133935 -4.9997e-07 3.35905e-07)
(0.00133711 -1.21882e-07 3.4785e-07)
(0.00133456 -1.01138e-07 3.04872e-07)
(0.00133184 1.08729e-09 6.21055e-07)
(0.00132927 -1.74372e-08 3.46706e-07)
(0.00132687 3.20521e-08 2.72663e-07)
(0.00132447 -1.98127e-08 2.88262e-07)
(0.00132215 -1.67011e-08 3.31758e-07)
(0.00131938 2.51846e-07 4.26587e-07)
(0.00131668 -3.21006e-07 3.71328e-07)
(0.00131417 -9.90975e-07 4.05409e-07)
(0.00131134 -9.95565e-07 1.21571e-07)
(0.00130909 -7.74823e-07 3.45819e-07)
(0.00130726 -1.97277e-07 2.87219e-07)
(0.00130494 3.85551e-08 3.19589e-07)
(0.00130228 9.27299e-08 3.23574e-07)
(0.00129952 2.0327e-07 4.6927e-07)
(0.00129651 3.60275e-07 2.89698e-07)
(0.00129507 9.96605e-07 2.82139e-07)
(0.00129349 4.43104e-07 3.29332e-07)
(0.00129052 1.20836e-07 2.87149e-07)
(0.00128797 8.38713e-08 3.50775e-07)
(0.00128633 -2.86587e-07 2.86875e-07)
(0.00128339 -6.53786e-07 1.9091e-07)
(0.00128036 -4.03776e-07 2.96412e-07)
(0.00127808 -2.68468e-07 3.43351e-07)
(0.00127604 -1.97929e-09 2.72722e-07)
(0.00127431 -2.54359e-07 3.28249e-07)
(0.00127138 -6.24885e-07 3.49858e-07)
(0.00126867 -5.06423e-07 2.28948e-07)
(0.00390198 -0.00119518 -0.000514802)
(0.00187786 0.00119708 -0.000136446)
(0.000821092 -0.000109804 0.000151663)
(-0.000635262 0.00129845 -0.000419866)
(0.018606 0.00860887 2.99242e-05)
(0.00218861 0.000933512 -9.56894e-05)
(0.0010141 0.000304216 6.25622e-05)
(0.00140143 1.68322e-05 3.47058e-07)
(0.00136815 2.68373e-05 3.9496e-07)
(0.0013604 -7.30029e-06 5.27659e-07)
(0.00136039 -7.34359e-06 3.41085e-07)
(0.00135869 -7.07101e-06 3.39684e-07)
(0.00135772 -5.36508e-06 3.40325e-07)
(0.00135601 -4.2767e-06 3.39395e-07)
(0.00135386 -2.88576e-06 3.38772e-07)
(0.00135193 -2.06476e-06 2.81649e-07)
(0.00134993 -1.38856e-06 3.38663e-07)
(0.00134713 -1.28201e-06 3.908e-07)
(0.00134419 -4.06879e-07 2.39698e-07)
(0.00134162 -1.87998e-07 3.06295e-07)
(0.0013396 1.12086e-07 3.88442e-07)
(0.00133718 -2.41033e-08 3.73411e-07)
(0.00133438 -3.01063e-09 2.80566e-07)
(0.00133192 -4.73532e-08 3.26608e-07)
(0.00132942 7.02462e-08 3.35028e-07)
(0.00132679 -5.27054e-08 3.37817e-07)
(0.00132423 -2.66674e-07 2.98365e-07)
(0.00132201 -4.32818e-07 3.30207e-07)
(0.0013192 -1.09281e-06 3.02752e-07)
(0.00131598 -9.24003e-07 3.62463e-07)
(0.00131382 -5.93282e-07 1.2283e-07)
(0.00131177 -2.60008e-07 2.81724e-07)
(0.00130982 8.251e-07 5.19046e-07)
(0.00130782 8.05739e-07 4.23477e-07)
(0.00130499 3.85108e-07 3.27734e-07)
(0.00130238 3.44617e-07 3.14625e-07)
(0.00130016 3.53562e-07 3.04377e-07)
(0.00129818 6.71624e-07 8.12526e-08)
(0.00129502 1.18441e-06 3.73237e-07)
(0.00129181 4.77903e-07 8.59877e-07)
(0.0012898 1.72189e-07 3.40141e-07)
(0.00128762 -9.89679e-08 2.87411e-07)
(0.00128483 -3.06362e-07 2.85703e-07)
(0.00128308 -9.10618e-07 6.91703e-07)
(0.00128127 -1.95698e-07 3.58977e-07)
(0.00127872 -1.04347e-07 3.42474e-07)
(0.00127631 5.3156e-07 3.15079e-07)
(0.00127366 8.11242e-08 2.52854e-07)
(0.00127132 -2.11201e-07 7.25688e-08)
(0.0012696 -3.14603e-07 4.03506e-07)
(-0.00765302 0.00117578 -0.00135306)
(0.00386503 0.000459018 0.000802645)
(0.00574586 0.000754643 0.0110011)
(-0.0121819 -0.00395659 0.00124131)
(-0.0330767 -0.0167072 0.000859142)
(-0.00526647 -0.00605406 -0.000658589)
(0.000496451 -5.26693e-05 -5.60831e-05)
(0.00122758 -2.48081e-05 9.86986e-07)
(0.00140546 -1.14538e-05 -3.051e-07)
(0.00132335 -2.36919e-05 3.30636e-07)
(0.00135934 -1.55033e-05 3.40125e-07)
(0.00135898 -1.11875e-05 3.39843e-07)
(0.00135978 -7.51345e-06 3.4022e-07)
(0.00135793 -5.00556e-06 3.4044e-07)
(0.00135548 -3.21014e-06 3.3951e-07)
(0.00135281 -1.99468e-06 3.37483e-07)
(0.00134997 -1.48287e-06 3.38311e-07)
(0.00134788 -1.17418e-06 2.16877e-07)
(0.00134528 -1.11004e-06 4.9476e-07)
(0.00134224 -5.41627e-07 3.24443e-07)
(0.00133955 -3.04035e-07 2.59823e-07)
(0.00133697 -3.19769e-07 3.30467e-07)
(0.00133453 -2.2344e-07 3.70889e-07)
(0.00133193 -1.94721e-07 3.31919e-07)
(0.00132926 -3.34529e-07 3.31386e-07)
(0.00132645 -1.99217e-07 3.608e-07)
(0.00132399 -1.45276e-07 3.41808e-07)
(0.00132112 -1.03861e-07 3.25663e-07)
(0.00131878 -2.57051e-07 2.17731e-07)
(0.00131732 4.38324e-07 2.09036e-07)
(0.00131501 7.9408e-07 5.75158e-07)
(0.00131311 8.34993e-07 4.69838e-07)
(0.00131042 8.10214e-07 1.68553e-07)
(0.0013067 5.00598e-07 2.02022e-07)
(0.00130436 1.90717e-07 3.70458e-07)
(0.00130224 2.54745e-07 3.37047e-07)
(0.00129993 1.88929e-07 3.26268e-07)
(0.00129754 5.97227e-08 3.53385e-07)
(0.00129482 -2.51342e-07 3.05075e-07)
(0.00129222 4.35896e-08 3.22502e-07)
(0.0012898 7.17853e-08 3.30925e-07)
(0.00128738 -3.22649e-08 3.18969e-07)
(0.00128532 4.40456e-07 3.96638e-07)
(0.00128353 9.36924e-07 3.14876e-07)
(0.00128138 6.12458e-07 1.99094e-07)
(0.00127899 5.59957e-07 3.13099e-07)
(0.00127627 5.38237e-07 4.40588e-07)
(0.00127338 6.9247e-07 3.47877e-07)
(0.00127089 3.95184e-07 3.06815e-07)
(0.00126932 2.34991e-07 4.26119e-07)
(-0.0010082 -0.00120418 -7.18337e-05)
(-0.00193036 -0.000521191 0.00125887)
(0.0165808 0.0182567 -0.00302577)
(0.0188725 0.0202096 -0.00393238)
(-0.0294825 -0.107384 -0.0355299)
(-0.0255128 1.75875e-05 -0.00202101)
(-0.000621717 -0.00401665 -2.9624e-05)
(0.00128375 -0.000205181 3.91085e-06)
(0.00144787 -9.79781e-05 2.96535e-07)
(0.00135571 -4.67831e-05 5.46837e-07)
(0.00137633 -2.57067e-05 3.45417e-07)
(0.00136888 -1.40193e-05 3.43949e-07)
(0.00136558 -8.28975e-06 3.41686e-07)
(0.00136147 -4.67766e-06 3.41474e-07)
(0.00135768 -2.46712e-06 3.39868e-07)
(0.00135412 -1.36556e-06 3.38601e-07)
(0.00135098 -9.29198e-07 3.38238e-07)
(0.00134762 -4.20609e-07 3.40375e-07)
(0.00134499 -7.40166e-07 3.65032e-07)
(0.00134264 -7.70532e-07 2.96933e-07)
(0.00133988 -6.37102e-07 2.39972e-07)
(0.00133728 -4.67126e-07 3.33463e-07)
(0.00133454 -4.97863e-07 1.32482e-07)
(0.00133179 -2.58385e-07 3.7404e-07)
(0.00132941 -2.25192e-07 7.81622e-07)
(0.00132703 9.48546e-08 3.23451e-07)
(0.00132435 4.1395e-07 4.00709e-07)
(0.00132188 7.26063e-07 3.97435e-07)
(0.00131988 1.33284e-06 3.08118e-07)
(0.00131729 8.54705e-07 3.04542e-07)
(0.00131431 7.49028e-07 3.66254e-07)
(0.00131178 9.62661e-07 2.64411e-07)
(0.0013094 1.71404e-08 3.20774e-07)
(0.00130704 -5.08794e-08 3.30114e-07)
(0.00130468 1.25955e-07 2.47834e-07)
(0.00130238 5.64758e-08 3.08412e-07)
(0.00129991 -8.23439e-08 3.08244e-07)
(0.00129763 -2.01163e-07 3.3768e-07)
(0.001295 -4.15034e-07 1.93067e-07)
(0.00129222 -2.43714e-07 2.76287e-07)
(0.0012897 2.36823e-09 3.19679e-07)
(0.00128808 4.77829e-07 3.74555e-07)
(0.00128604 5.08202e-07 4.16833e-07)
(0.00128328 5.92473e-07 2.79586e-07)
(0.0012808 1.0221e-07 3.37952e-07)
(0.00127862 6.22607e-08 3.19488e-07)
(0.00127647 2.46614e-09 3.68427e-07)
(0.00127347 4.27631e-07 2.99515e-07)
(0.00127074 2.81267e-07 3.52884e-07)
(0.00126882 4.41819e-07 5.24844e-07)
(-0.00286942 0.00117836 -0.00136441)
(-0.00314322 -0.00648199 -0.00134347)
(-0.0383926 -0.000616725 -0.0211494)
(0.00471894 0.00451424 -0.00055674)
(0.00791296 0.00273963 0.0120552)
(0.0064397 -0.00107333 -0.000451636)
(-0.000907349 -0.000770218 0.000125393)
(0.00130162 -0.000444217 2.34941e-05)
(0.00153113 -6.1617e-05 7.17497e-07)
(0.00141443 -2.59386e-05 4.24146e-07)
(0.00140063 -1.27722e-05 3.72043e-07)
(0.00138095 -6.27492e-06 8.74725e-07)
(0.00137158 -2.78012e-06 3.46842e-07)
(0.00136528 -1.63944e-06 3.42493e-07)
(0.00135966 -1.29082e-06 3.65373e-07)
(0.00135476 -9.0393e-07 3.40652e-07)
(0.00135116 -4.69688e-07 3.38083e-07)
(0.00134813 -4.08549e-07 3.36348e-07)
(0.00134485 -2.95827e-08 3.33601e-07)
(0.00134238 9.41901e-08 1.0976e-07)
(0.00133994 -6.06525e-07 3.6618e-07)
(0.00133715 4.04377e-08 3.0207e-07)
(0.0013348 5.5629e-08 4.05371e-07)
(0.00133228 1.29922e-07 3.52955e-07)
(0.00132971 2.9347e-07 2.62721e-07)
(0.00132725 -1.69224e-07 3.40226e-07)
(0.00132478 2.91042e-07 3.84791e-07)
(0.00132226 5.3059e-07 3.41506e-07)
(0.00131893 8.5813e-07 5.01808e-07)
(0.00131657 1.02906e-06 3.22429e-07)
(0.00131513 5.08759e-07 3.5724e-07)
(0.00131219 1.93923e-08 3.28764e-07)
(0.00130915 3.14073e-07 3.07718e-07)
(0.00130683 1.9419e-07 3.26327e-07)
(0.0013045 3.02179e-07 3.16592e-07)
(0.00130198 4.48019e-08 3.25871e-07)
(0.0012996 -3.74915e-09 3.50062e-07)
(0.00129713 -1.54681e-07 3.22918e-07)
(0.00129477 -3.16501e-07 3.14418e-07)
(0.00129275 -2.82574e-07 7.5068e-08)
(0.0012907 1.69793e-08 3.25288e-07)
(0.00128801 4.07687e-07 4.89203e-07)
(0.00128546 1.81613e-08 2.16975e-07)
(0.00128302 -8.35e-08 1.13e-07)
(0.00128071 -3.38476e-07 3.5247e-07)
(0.00127887 -4.40945e-07 3.18557e-07)
(0.00127673 -9.45993e-07 1.03342e-07)
(0.00127373 -1.41748e-06 2.70106e-07)
(0.0012709 -5.50298e-07 3.59318e-07)
(0.00126842 3.63991e-08 3.25928e-07)
(-0.00305458 -0.0136307 -0.00193243)
(0.0078099 -0.0384688 -0.0249503)
(-0.00624337 -0.0156987 0.00015399)
(0.00290653 0.000231238 0.000976567)
(0.0284149 0.0344876 -0.0118479)
(0.0036596 0.00707879 -0.00364716)
(-0.000663034 0.0028161 3.41402e-05)
(0.00158775 -1.86151e-05 2.29125e-05)
(0.00153526 5.29181e-05 6.65772e-07)
(0.00141625 2.65089e-05 3.67526e-07)
(0.00140104 1.52091e-05 3.0924e-07)
(0.00138144 8.61299e-06 3.08761e-07)
(0.00137141 5.44684e-06 3.74108e-07)
(0.00136335 3.03055e-06 3.412e-07)
(0.00135861 1.42846e-06 3.41477e-07)
(0.00135516 7.38543e-07 3.54573e-07)
(0.00135161 5.61383e-07 3.3784e-07)
(0.00134817 3.53976e-07 3.62249e-07)
(0.00134562 3.07865e-07 3.01044e-07)
(0.00134191 7.96418e-07 4.5266e-07)