/*--------------------------------*- C++ -*----------------------------------*\
| =========                 |                                                 |
| \\      /  F ield         | OpenFOAM: The Open Source CFD Toolbox           |
|  \\    /   O peration     | Version:  5.0                                   |
|   \\  /    A nd           | Web:      www.OpenFOAM.org                      |
|    \\/     M anipulation  |                                                 |
\*---------------------------------------------------------------------------*/
FoamFile
{
    version     2.0;
    format      ascii;
    class       volVectorField;
    location    "3.1";
    object      U_0;
}
// * * * * * * * * * * * * * * * * * * * * * * * * * * * * * * * * * * * * * //

dimensions      [0 1 -1 0 0 0 0];

internalField   nonuniform List<vector> 
8577
(
(-0.000395695 -0.00572358 1.6189e-05)
(0.000910019 -0.00502012 -6.74002e-05)
(-0.000185439 0.00354063 -3.44189e-05)
(0.00321154 -0.00577003 0.000426346)
(0.00474718 0.00731495 -0.000358716)
(-0.00221278 0.000817427 -0.000827694)
(0.000355182 -1.8188e-05 1.33333e-05)
(0.000809363 -7.57861e-05 -1.7472e-06)
(0.000787951 -4.86975e-05 -2.41366e-08)
(0.000798401 -3.18619e-05 1.63786e-07)
(0.000804323 -2.03562e-05 1.13222e-07)
(0.000807997 -1.29709e-05 6.86459e-08)
(0.0008102 -8.20611e-06 6.22383e-09)
(0.000811055 -5.16089e-06 7.50822e-08)
(0.000811039 -3.25747e-06 5.3332e-08)
(0.000810563 -2.02043e-06 2.20248e-07)
(0.000809725 -1.31848e-06 5.50741e-08)
(0.000808726 -8.9085e-07 7.55396e-08)
(0.000807138 -7.8605e-07 7.37258e-08)
(0.000805586 -5.68661e-07 6.09654e-08)
(0.000804489 -4.04107e-07 6.49822e-08)
(0.000803068 -1.75029e-07 6.42572e-08)
(0.000801499 -1.39938e-07 3.88761e-08)
(0.000799849 -6.67538e-08 3.40883e-08)
(0.000798186 5.13843e-08 6.11973e-09)
(0.000796921 1.38139e-07 1.10702e-07)
(0.000795641 1.74092e-08 5.30352e-08)
(0.000794293 3.14571e-08 4.76893e-08)
(0.000792327 1.45442e-07 7.19856e-08)
(0.000790559 -2.12834e-07 2.20051e-07)
(0.000789254 -7.05594e-07 -7.75384e-08)
(0.000787288 -5.66674e-07 -3.58242e-09)
(0.000786253 -3.9513e-07 8.70999e-08)
(0.000785276 -3.0742e-07 4.38991e-08)
(0.000783473 4.24475e-08 3.51541e-08)
(0.000781905 -1.1827e-08 4.41069e-08)
(0.000780395 2.47522e-08 3.70711e-08)
(0.000778823 6.34963e-08 2.70137e-08)
(0.000777322 3.32662e-07 -8.05893e-08)
(0.000776216 4.55589e-07 8.94816e-08)
(0.000774972 5.85308e-08 2.45558e-08)
(0.000773104 -4.58472e-08 7.45134e-08)
(0.000772034 -5.30744e-07 1.26143e-07)
(0.000770821 -3.91701e-07 1.95031e-07)
(0.000769119 -2.16531e-07 5.05668e-08)
(0.000767625 -2.04312e-07 5.64849e-08)
(0.000766189 -2.54108e-07 5.01275e-08)
(0.000764922 -4.87669e-07 1.73059e-07)
(0.000763252 -3.16802e-07 -2.16278e-08)
(0.000761505 -2.22806e-07 7.31734e-08)
(0.00189602 -0.000708917 -0.000172803)
(0.00186493 0.00188671 -0.000197363)
(-0.000610904 0.00115083 -0.000127666)
(0.000919874 0.00508415 0.000272725)
(-0.00127706 0.00783449 -0.0001204)
(0.00331765 -0.00531716 -7.26339e-05)
(0.000403251 -9.02028e-05 3.61018e-05)
(0.000839099 -0.0001008 -2.57494e-06)
(0.000822658 -4.38272e-05 -8.11742e-08)
(0.000819545 -3.87432e-05 1.07386e-08)
(0.000819048 -2.44097e-05 4.94374e-08)
(0.000817439 -1.61827e-05 4.68089e-08)
(0.000816275 -1.03862e-05 5.21101e-08)
(0.000814927 -6.65019e-06 5.08032e-08)
(0.000813592 -4.22318e-06 5.24211e-08)
(0.000812103 -2.66246e-06 4.30017e-08)
(0.000810523 -1.7511e-06 4.95011e-08)
(0.000808961 -1.23203e-06 5.92081e-08)
(0.000807567 -8.59579e-07 1.20793e-07)
(0.000806181 -4.10753e-07 2.86447e-08)
(0.000804653 -1.32325e-07 5.05274e-08)
(0.000803062 -2.45444e-07 5.85677e-08)
(0.000801447 -1.8117e-07 3.81008e-08)
(0.000800025 -1.81707e-07 5.16306e-08)
(0.000798598 -3.92304e-08 -1.9214e-08)
(0.000796886 1.36448e-08 7.68392e-08)
(0.000795287 -1.98801e-07 3.37771e-08)
(0.000793898 -3.29788e-07 4.74807e-08)
(0.000792181 -8.91517e-07 5.00076e-08)
(0.000790169 -5.63981e-07 -1.35912e-07)
(0.000788979 -6.7054e-07 1.61762e-07)
(0.000788185 -3.66057e-07 5.747e-08)
(0.000786552 3.20867e-07 1.84535e-07)
(0.00078522 2.42374e-07 2.05624e-07)
(0.000783708 -4.54925e-08 4.79494e-08)
(0.0007819 7.16011e-08 4.20918e-08)
(0.000780627 9.44221e-08 4.60943e-08)
(0.000779226 1.67396e-07 5.52651e-08)
(0.000777724 3.05492e-07 3.34169e-08)
(0.000775945 4.10855e-07 -1.14004e-09)
(0.000774395 1.59736e-07 5.48881e-08)
(0.00077302 -5.39883e-08 8.51284e-08)
(0.00077161 -1.4123e-07 4.83757e-08)
(0.000770511 -3.16203e-07 -1.35502e-08)
(0.000769099 -1.35355e-07 5.71655e-08)
(0.00076761 -1.47584e-07 5.60604e-08)
(0.000766254 2.11628e-08 6.49028e-08)
(0.00076485 -1.47663e-07 5.06608e-08)
(0.000763251 -3.5206e-07 8.37811e-08)
(0.000762231 -2.32211e-07 2.9762e-08)
(0.0125588 0.00268452 -0.00082387)
(0.0103906 -0.000359723 0.000891567)
(0.000738315 0.0082875 -0.00076308)
(0.00691873 -0.00943622 -0.000464621)
(0.0112193 0.0109598 0.000531731)
(-0.00153001 0.0083848 -0.000201932)
(0.00119873 -7.14093e-05 -4.97444e-06)
(0.000463054 -7.13334e-05 -1.25178e-06)
(0.000894166 -4.77688e-05 -1.67987e-06)
(0.000823126 -3.78516e-05 -4.70714e-07)
(0.000832722 -2.3112e-05 1.85116e-07)
(0.000825653 -1.49579e-05 3.95952e-08)
(0.000822199 -9.44953e-06 5.86486e-08)
(0.000818813 -5.98474e-06 5.27893e-08)
(0.000816059 -3.79194e-06 5.21077e-08)
(0.000813675 -2.44403e-06 5.0506e-08)
(0.000811528 -1.54561e-06 5.75513e-08)
(0.000809851 -9.3631e-07 7.70233e-08)
(0.000808172 -8.06126e-07 3.8041e-08)
(0.000806498 -5.09301e-07 4.04104e-08)
(0.000804698 -5.05875e-07 1.54082e-07)
(0.000803008 -3.07546e-07 4.92006e-08)
(0.00080158 -2.71431e-07 1.28531e-07)
(0.000800027 -1.58041e-07 -1.09864e-07)
(0.00079843 -2.23923e-07 5.4467e-08)
(0.000796722 -1.44142e-07 3.24426e-08)
(0.000795213 -1.47293e-07 6.49097e-08)
(0.000793431 -1.55114e-07 6.53555e-08)
(0.00079204 -1.73628e-07 -3.70912e-08)
(0.000790842 2.90741e-07 3.7502e-08)
(0.000789506 7.86826e-07 7.85726e-08)
(0.000788529 7.01175e-07 7.10103e-08)
(0.000787012 2.88234e-07 2.82869e-07)
(0.000784815 3.34455e-07 1.14941e-07)
(0.000783257 -2.7349e-08 8.74118e-08)
(0.000782078 1.0478e-07 5.19454e-08)
(0.000780513 9.39048e-08 5.17734e-08)
(0.000779084 8.15626e-08 6.61647e-08)
(0.000777623 1.20411e-07 4.34975e-08)
(0.000776031 -2.71731e-08 1.16144e-07)
(0.000774389 6.45772e-08 2.11884e-08)
(0.000772728 7.523e-08 -1.3048e-07)
(0.000771708 3.28536e-07 1.92816e-07)
(0.000770831 2.77979e-07 1.10245e-07)
(0.000769333 2.37221e-07 9.19402e-08)
(0.000767822 2.42989e-07 1.13969e-07)
(0.00076619 3.4052e-07 6.94458e-08)
(0.000764456 1.63228e-07 6.25814e-08)
(0.000763153 9.25137e-08 5.81005e-08)
(0.000762233 7.49015e-08 8.00094e-08)
(0.00166257 0.00158379 -3.65576e-05)
(0.0086606 -0.000496327 -5.14943e-05)
(0.00947795 0.00572233 0.000350022)
(-0.0213384 -0.00655898 -0.000740605)
(0.0109571 -0.0177388 0.00141756)
(-0.00256862 1.94435e-05 -0.000109063)
(-0.00011438 -0.00125586 -9.35893e-06)
(0.000540215 -7.18414e-05 9.92987e-07)
(0.000934215 -5.51735e-05 -1.66283e-06)
(0.000850667 -2.76898e-05 -3.82913e-07)
(0.000847899 -1.58891e-05 1.51549e-07)
(0.000834666 -9.08243e-06 2.7644e-08)
(0.000827587 -5.3985e-06 5.40826e-08)
(0.00082206 -3.20454e-06 4.99205e-08)
(0.000818057 -1.9441e-06 5.11146e-08)
(0.000814935 -1.17505e-06 5.18573e-08)
(0.000812424 -7.14877e-07 4.85992e-08)
(0.000809897 -3.84429e-07 2.35823e-08)
(0.000808109 -3.89896e-07 5.66232e-08)
(0.000806563 -5.25138e-07 3.774e-08)
(0.00080491 -3.99033e-07 7.81257e-08)
(0.000803358 -2.59768e-07 5.34892e-08)
(0.000801636 -2.66324e-07 3.64527e-08)
(0.000800086 -1.47888e-07 5.2497e-08)
(0.000798616 -1.40252e-07 2.09052e-08)
(0.000796983 8.79447e-09 9.07955e-08)
(0.000795274 1.74598e-07 5.94047e-08)
(0.000793866 2.97093e-07 8.19025e-08)
(0.000792738 8.08542e-07 1.12841e-08)
(0.000791366 6.74818e-07 3.27152e-08)
(0.000789487 7.80473e-07 1.63227e-08)
(0.000787556 7.12294e-07 -2.02658e-08)
(0.000786089 2.10216e-07 4.68355e-08)
(0.000784824 -3.57753e-08 5.02358e-08)
(0.00078342 1.50572e-07 4.5016e-08)
(0.000782051 3.52311e-08 4.05128e-08)
(0.000780598 -5.50646e-08 3.55567e-08)
(0.000779259 -1.13425e-07 3.39456e-08)
(0.000777588 -3.43001e-07 -3.45445e-09)
(0.000775876 -2.17589e-07 -3.33445e-08)
(0.000774523 -4.49476e-08 4.8704e-08)
(0.000773349 1.51019e-07 4.34684e-08)
(0.000771861 4.24069e-07 1.00211e-07)
(0.000770393 3.89246e-07 -2.24839e-08)
(0.000769051 4.04357e-08 -7.84664e-08)
(0.000767736 5.87442e-09 3.89634e-08)
(0.000766151 -6.7979e-08 8.05118e-08)
(0.000764538 6.80116e-08 2.00015e-08)
(0.000763138 2.76196e-07 4.16301e-08)
(0.000762022 2.24556e-07 5.07974e-08)
(0.00641404 -0.00444174 -0.000233258)
(0.00291915 0.00863896 -0.000108352)
(-0.00954661 0.00148075 0.00171001)
(-0.0138351 0.0104072 -6.00371e-05)
(-0.0046876 -0.00520617 0.00100349)
(0.00187315 -0.000937713 0.000331211)
(0.00107761 0.00010167 -9.4713e-06)
(0.000472692 -4.99119e-05 1.57698e-05)
(0.000954711 6.55848e-07 -2.2482e-06)
(0.000872753 4.98492e-06 -4.70774e-07)
(0.000856198 3.79357e-06 1.00124e-07)
(0.000838898 2.83551e-06 -1.0057e-08)
(0.000829624 2.0191e-06 6.96115e-08)
(0.000823178 1.32469e-06 4.674e-08)
(0.000818624 8.85339e-07 4.81784e-08)
(0.000815229 5.76075e-07 5.05547e-08)
(0.000812526 3.93816e-07 5.07969e-08)
(0.000810263 2.27395e-07 4.79714e-08)
(0.000808001 4.41773e-07 1.33699e-07)
(0.000806492 4.23804e-07 1.24567e-07)
(0.000805034 2.35287e-07 6.931e-08)
(0.000803177 1.96548e-07 4.69824e-08)
(0.000801722 1.0624e-07 1.71469e-07)
(0.000800187 9.61741e-08 5.75156e-08)
(0.000798627 1.49763e-07 1.45919e-07)
(0.000797115 -6.60333e-08 2.22582e-08)
(0.000795571 1.08861e-07 6.82002e-08)
(0.000794219 1.58209e-07 2.41042e-08)
(0.000792505 2.13094e-07 -3.47789e-09)
(0.000790798 8.89892e-08 1.80009e-08)
(0.000789545 -4.99195e-08 4.86228e-08)
(0.00078781 -2.98283e-07 4.74457e-08)
(0.000786074 9.09394e-08 5.64168e-08)
(0.000784739 5.42272e-08 5.22326e-08)
(0.000783345 1.61633e-07 6.55209e-08)
(0.000781821 2.26469e-08 4.78343e-08)
(0.000780328 7.01991e-09 5.02582e-08)
(0.000778726 -1.40046e-07 8.25189e-08)
(0.000777495 -2.40311e-07 1.09628e-07)
(0.000776405 -1.42906e-07 6.8005e-08)
(0.000774851 6.64077e-08 8.64467e-08)
(0.000773313 1.40515e-07 3.33582e-07)
(0.000772003 1.67042e-07 7.10769e-08)
(0.000770349 6.98119e-08 5.9551e-08)
(0.000768852 -8.31107e-08 1.8744e-07)
(0.000767686 -1.91782e-07 4.72411e-08)
(0.000766267 -4.41615e-07 -3.81132e-08)
(0.000764886 -3.46912e-07 -1.39791e-08)
(0.000763342 -2.1282e-07 2.89681e-08)
(0.00076161 1.12404e-07 8.91325e-08)
(0.0118581 0.00507934 0.000383218)
(-9.64295e-05 -0.0123411 -0.00729616)
(0.0118756 -0.0220574 0.000127534)
(0.00241713 0.00469713 0.00014006)
(-0.0191169 -0.00896062 -5.6967e-05)
(0.017946 0.00541585 0.000115883)
(0.000741978 0.000943582 1.02341e-05)
(0.000421017 2.98516e-05 1.38308e-05)
(0.000923343 7.41473e-05 -2.13518e-06)
(0.000854321 4.19606e-05 -2.92462e-07)
(0.000845271 2.51082e-05 1.17418e-07)
(0.00083248 1.50482e-05 3.52378e-08)
(0.000825716 9.20891e-06 8.52141e-08)
(0.000820653 5.62077e-06 4.69669e-08)
(0.000817128 3.48754e-06 6.06819e-08)
(0.000814325 2.18374e-06 5.60784e-08)
(0.00081199 1.41295e-06 5.03511e-08)
(0.000809958 9.75323e-07 7.19903e-08)
(0.000808354 6.51923e-07 8.56853e-08)
(0.000806304 8.62916e-07 7.8038e-08)
(0.000804625 5.94736e-07 -1.35799e-08)
(0.000803197 4.17499e-07 8.64226e-08)
(0.000801511 2.28228e-07 1.25812e-07)
(0.00080014 1.90748e-07 6.83866e-08)
(0.000798414 1.1772e-07 -1.61582e-08)
(0.000796931 1.03684e-07 4.75174e-08)
(0.000795554 -9.45833e-09 3.98655e-08)
(0.000793994 -1.26267e-07 2.01558e-08)
(0.000792649 -1.62329e-07 5.58926e-08)
(0.000791036 -2.91172e-07 5.96818e-08)
(0.000789003 -4.43784e-07 -2.49133e-08)
(0.000787732 -3.6654e-07 -2.65113e-08)
(0.000786529 -2.57963e-07 1.42391e-08)
(0.00078491 -1.03714e-07 8.13582e-08)
(0.000783379 -8.82554e-08 5.41688e-08)
(0.000781857 -7.47388e-09 4.38882e-08)
(0.000780395 7.10904e-08 5.50058e-08)
(0.000778951 1.49491e-07 6.23452e-08)
(0.000777586 3.52594e-07 1.14115e-07)
(0.00077626 2.66415e-07 6.98315e-08)
(0.000774877 1.50236e-07 3.87482e-08)
(0.000773474 1.54313e-07 2.12062e-07)
(0.000771772 1.22837e-07 5.00377e-08)
(0.000770081 -6.55382e-08 5.55432e-08)
(0.000768726 4.42767e-08 2.33262e-07)
(0.000767291 -1.50563e-07 4.74486e-08)
(0.000765962 -4.67021e-07 -3.35002e-07)
(0.000764827 -5.23887e-07 5.86473e-08)
(0.000763713 -4.81691e-07 9.77193e-08)
(0.000762147 -2.05742e-07 1.85639e-07)
(-0.0043346 -0.0146603 0.019862)
(-0.00688557 -0.0124001 0.000462089)
(0.0311475 0.00198057 0.0020293)
(0.0145505 -0.00359435 0.000660259)
(0.0125918 -0.00136102 -0.000172857)
(-0.00502818 -0.0033645 -0.000772174)
(0.000399498 -0.000684623 7.07485e-05)
(0.00033798 4.4719e-05 4.7407e-06)
(0.000861603 9.17481e-05 -1.69572e-06)
(0.000811317 5.29961e-05 -3.58462e-07)
(0.000822396 3.2348e-05 1.60716e-07)
(0.000818928 1.96345e-05 3.84467e-08)
(0.000817783 1.19752e-05 5.65868e-08)
(0.000815992 7.39289e-06 5.17401e-08)
(0.000814307 4.58231e-06 5.19249e-08)
(0.000812623 2.864e-06 5.09118e-08)
(0.000811008 1.79871e-06 5.05995e-08)
(0.000809307 1.22506e-06 3.50409e-08)
(0.000807855 8.39446e-07 5.20033e-08)
(0.000806415 5.08582e-07 5.25754e-08)
(0.000804472 4.98719e-07 2.56066e-08)
(0.000802715 2.73023e-07 4.73409e-08)
(0.000801436 4.25832e-07 5.037e-08)
(0.000800047 1.96568e-07 4.6906e-08)
(0.000798517 1.08413e-07 2.76157e-08)
(0.000796956 1.56745e-07 1.90442e-07)
(0.000795284 -1.4834e-08 5.07773e-08)
(0.000794029 -7.33607e-08 6.95513e-08)
(0.000792301 -3.9228e-07 2.56538e-08)
(0.00079045 -6.32467e-07 7.5196e-09)
(0.000789454 -3.00803e-07 1.18525e-08)
(0.000788046 -1.23057e-08 1.37306e-07)
(0.000786405 -8.28197e-08 2.32438e-08)
(0.000784953 -7.53285e-08 2.36653e-08)
(0.000783466 -9.96257e-08 1.105e-07)
(0.000782021 4.56938e-08 1.88891e-07)
(0.000780524 7.98959e-08 4.99545e-08)
(0.000779077 1.58383e-07 4.40112e-08)
(0.00077764 1.81527e-07 4.82976e-08)
(0.000776151 2.55499e-07 -6.73543e-09)
(0.000774709 6.17425e-08 3.95416e-08)
(0.000773278 -5.1253e-08 4.68209e-08)
(0.000771728 -1.59845e-07 4.6165e-08)
(0.000770251 -8.30257e-08 5.41641e-08)
(0.000768747 -6.97091e-08 1.56149e-08)
(0.000767049 7.5404e-09 4.80236e-08)
(0.000765805 -1.47808e-08 9.8257e-09)
(0.000764872 -3.0785e-07 6.78984e-08)
(0.000763749 -2.19811e-07 2.3024e-08)
(0.000762467 -3.03694e-07 8.4381e-08)
(0.0144633 0.0184909 -0.00131943)
(-0.0139523 0.00715164 0.000687044)
(0.000588039 0.00499429 2.02837e-05)
(0.029247 0.00745186 0.00179746)
(-0.0202887 -0.00181235 0.000991222)
(0.000708754 0.000624177 0.000225536)
(0.000886574 0.000301754 5.82697e-05)
(0.000421172 6.90806e-05 -2.27622e-07)
(0.000819929 6.62042e-05 -1.43392e-06)
(0.000779337 4.08058e-05 -5.27872e-07)
(0.0008033 2.52399e-05 1.47915e-07)
(0.000806849 1.56974e-05 2.61453e-08)
(0.000810314 9.77644e-06 5.64864e-08)
(0.00081135 6.11564e-06 5.12472e-08)
(0.000811428 3.82909e-06 5.13495e-08)
(0.000810821 2.39327e-06 5.26866e-08)
(0.000809926 1.5384e-06 1.37089e-07)
(0.000808748 9.90398e-07 5.89681e-08)
(0.000807452 7.77747e-07 -1.75151e-07)
(0.000805872 2.64516e-07 3.77928e-08)
(0.000804327 1.36343e-07 4.42578e-08)
(0.000803102 1.8479e-07 6.78206e-08)
(0.000801413 2.68622e-07 3.51628e-08)
(0.000799741 1.60839e-07 4.8055e-08)
(0.000798362 3.42535e-08 4.53121e-08)
(0.000796777 -6.9927e-08 3.78348e-08)
(0.000795266 -9.99754e-09 8.46147e-09)
(0.000793525 5.7901e-08 1.83309e-07)
(0.000791955 -1.66253e-07 5.61793e-08)
(0.000791156 2.76431e-07 -4.03169e-09)
(0.000789782 3.47722e-07 8.53223e-08)
(0.000788006 1.5452e-07 6.3719e-08)
(0.000786452 1.98787e-07 6.14026e-08)
(0.00078489 7.93844e-08 5.43542e-08)
(0.000783531 5.12337e-08 4.34675e-08)
(0.000782082 1.70396e-08 5.77548e-08)
(0.000780536 -2.46392e-09 1.44378e-08)
(0.000779078 -3.13447e-08 4.41223e-08)
(0.000777706 1.27827e-07 4.05217e-08)
(0.000776109 1.19257e-07 5.31264e-08)
(0.000774493 -2.14015e-08 4.85398e-08)
(0.000773197 3.0453e-09 3.40478e-08)
(0.000771734 -8.42362e-08 -1.68751e-09)
(0.000770195 -8.44784e-08 4.89202e-08)
(0.00076884 -4.14692e-08 6.73025e-08)
(0.000767361 1.40014e-07 4.50866e-08)
(0.000765568 4.77668e-07 5.55455e-08)
(0.000764573 6.38951e-07 7.04272e-08)
(0.000763727 2.40373e-07 3.23066e-08)
(0.0007628 -7.81277e-09 9.30698e-08)
(-0.00069475 0.00087907 -9.42029e-05)
(0.00611522 0.00023325 -0.000195193)
(0.00600741 -0.00162239 0.000639291)
(-0.00543337 -0.000277093 9.60247e-05)
(-0.0180791 -0.0581332 0.00260009)
(0.00211845 0.012386 -0.000365593)
(0.000938284 -2.88842e-05 -2.78623e-05)
(0.000356255 3.42418e-05 6.08358e-07)
(0.000780043 3.43326e-06 -1.03542e-06)
(0.000759748 1.1734e-05 -3.53398e-07)
(0.000790747 7.32685e-06 1.88638e-07)
(0.000799435 5.45884e-06 5.16694e-08)
(0.000805704 3.66139e-06 6.47503e-08)
(0.000808494 2.42806e-06 5.54249e-08)
(0.000809615 1.58176e-06 5.49945e-08)
(0.000809735 1.0244e-06 1.33242e-07)
(0.000809238 6.71561e-07 6.73558e-08)
(0.000808345 3.74706e-07 -8.74733e-09)
(0.000806941 3.10956e-07 4.00793e-08)
(0.00080561 1.45577e-07 1.00789e-07)
(0.000804371 1.75976e-07 5.66161e-08)
(0.00080288 1.30046e-08 5.00832e-08)
(0.000801405 -1.20702e-07 5.47299e-08)
(0.000799754 -6.79481e-08 5.27317e-08)
(0.000798229 -8.56366e-08 3.68574e-08)
(0.000796902 -8.47099e-08 5.19889e-08)
(0.000795445 3.58569e-08 1.92031e-08)
(0.000793835 3.88089e-08 4.82948e-08)
(0.000792574 2.07372e-07 1.0432e-07)
(0.000791091 4.6557e-07 5.16408e-08)
(0.0007893 2.69491e-07 1.61141e-07)
(0.000787858 1.76087e-07 6.01046e-08)
(0.00078631 9.87763e-08 -1.99779e-07)
(0.000784768 -5.93363e-09 -2.13585e-08)
(0.000783388 -7.71059e-08 2.26615e-07)
(0.000781954 -1.61294e-07 6.15169e-08)
(0.000780464 -2.05573e-07 4.8051e-08)
(0.00077924 -1.63396e-07 5.63428e-08)
(0.000777828 -3.94289e-07 8.35025e-08)
(0.000775964 -5.41008e-07 3.34138e-08)
(0.000774564 -2.51258e-07 2.58183e-09)
(0.0007732 -1.18645e-07 -8.45652e-09)
(0.00077162 1.95011e-07 4.86838e-08)
(0.000770305 1.26936e-07 4.2152e-08)
(0.000769028 1.32131e-07 5.40787e-08)
(0.000767697 1.45565e-07 3.89442e-08)
(0.000766425 3.69984e-07 7.19763e-08)
(0.000764572 9.79203e-07 2.52047e-08)
(0.000762939 6.56919e-07 -4.17864e-08)
(0.000762174 3.39195e-07 9.01775e-08)
(-0.00852508 -0.00339353 0.000454441)
(0.000637026 -0.00568575 -0.000450668)
(0.00391833 -0.00114716 0.000424914)
(0.00300454 0.0125805 -0.000533137)
(-0.0041809 0.0447212 -0.00494341)
(0.0245335 0.000695453 0.00071292)
(0.000318026 2.99951e-05 2.47474e-05)
(0.000770896 -4.12795e-05 -2.065e-06)
(0.000766549 -4.10306e-05 -2.8362e-07)
(0.00078392 -1.63366e-05 1.25123e-08)
(0.000795309 -1.00493e-05 7.88637e-08)
(0.000802173 -5.48035e-06 5.02642e-08)
(0.000806463 -3.20059e-06 6.33466e-08)
(0.00080871 -1.88167e-06 4.18163e-08)
(0.000809648 -1.14935e-06 5.2136e-08)
(0.000809667 -7.39502e-07 5.50018e-08)
(0.000809104 -4.85378e-07 5.42934e-08)
(0.000808291 -3.49261e-07 3.44091e-07)
(0.000807161 -1.80195e-07 7.63986e-08)
(0.000805701 -1.91542e-07 1.27986e-08)
(0.00080416 -1.9972e-07 2.92943e-08)
(0.000802731 -9.70775e-08 5.51695e-08)
(0.000801312 -4.93556e-08 5.64862e-08)
(0.000799786 -2.1992e-08 4.81481e-08)
(0.000798343 2.75089e-08 4.19382e-08)
(0.00079693 -5.61962e-08 5.86559e-08)
(0.000795422 4.36596e-08 4.98398e-08)
(0.000793739 1.01061e-07 4.51269e-08)
(0.000792486 4.11557e-07 6.57395e-09)
(0.00079123 -9.60961e-08 7.30813e-08)
(0.000789417 -1.38711e-08 1.8844e-07)
(0.000787791 -1.34217e-07 2.73581e-08)
(0.000786224 -4.71907e-07 6.18073e-08)
(0.000784671 -1.82269e-07 3.96691e-08)
(0.000783338 -6.80577e-08 7.29842e-08)
(0.000781923 -1.16398e-07 6.65892e-08)
(0.000780534 -1.07984e-07 4.83976e-08)
(0.000778844 -1.72118e-07 4.54872e-08)
(0.000777237 -4.42912e-07 6.33721e-09)
(0.000776291 -5.78939e-07 6.34604e-08)
(0.000775024 -2.43622e-07 5.79904e-08)
(0.000773756 -2.54388e-07 2.37281e-08)
(0.000772041 -3.2144e-07 1.00943e-08)
(0.000770115 7.6974e-08 7.7086e-08)
(0.000768863 9.21114e-08 -3.01517e-08)
(0.000767656 1.52258e-07 -6.45885e-08)
(0.000766606 3.61698e-08 1.62303e-08)
(0.000764925 -3.54133e-08 2.66994e-08)
(0.000762913 3.17181e-07 -2.48396e-08)
(0.000761559 2.2121e-07 6.82293e-08)
(0.00728046 0.00282559 -4.28303e-05)
(0.00259452 0.000480618 -0.000268727)
(0.00510943 0.00133654 -0.000110391)
(0.00441588 0.00183121 0.000958326)
(0.00689537 -0.00307505 0.00230482)
(0.00717373 -0.00172796 0.00224288)
(0.00123148 -1.08902e-05 3.91256e-05)
(0.00134496 -0.000114628 3.4636e-07)
(0.00131176 -7.36553e-05 3.29181e-07)
(0.00133053 -4.81958e-05 4.04963e-07)
(0.00134098 -3.07673e-05 2.57401e-07)
(0.0013474 -1.9651e-05 2.78711e-07)
(0.00135138 -1.24447e-05 2.72446e-07)
(0.0013529 -7.77043e-06 3.13226e-07)
(0.00135287 -4.9076e-06 3.41065e-07)
(0.00135207 -3.05478e-06 5.05727e-07)
(0.00135066 -1.98168e-06 3.39978e-07)
(0.00134901 -1.31394e-06 3.12754e-07)
(0.00134642 -1.14609e-06 3.75595e-07)
(0.00134388 -8.51751e-07 3.16153e-07)
(0.00134202 -5.83555e-07 4.85613e-07)
(0.00133962 -1.73435e-07 3.77577e-07)
(0.00133699 -1.29476e-07 3.15633e-07)
(0.00133429 -3.82708e-08 2.94761e-07)
(0.00133161 1.67686e-07 2.90849e-07)
(0.00132941 3.31117e-07 3.77985e-07)
(0.00132721 1.00373e-07 2.85384e-07)
(0.00132504 6.23786e-08 3.37942e-07)
(0.00132181 2.3541e-07 3.51161e-07)
(0.00131881 -4.16388e-07 7.86847e-07)
(0.00131662 -1.2152e-06 2.48896e-07)
(0.00131341 -9.80386e-07 1.42189e-07)
(0.00131163 -6.77089e-07 3.67142e-07)
(0.00131003 -4.58591e-07 3.08745e-07)
(0.00130712 1.06544e-07 3.19722e-07)
(0.00130448 4.13172e-08 3.25007e-07)
(0.00130191 8.35715e-08 3.21258e-07)
(0.00129921 1.69345e-07 2.74756e-07)
(0.00129686 6.50762e-07 7.06462e-08)
(0.00129507 7.59484e-07 5.10818e-07)
(0.00129287 1.36591e-07 2.86884e-07)
(0.00128985 -3.36588e-08 3.56501e-07)
(0.00128809 -7.94579e-07 4.14876e-07)
(0.0012859 -6.1221e-07 6.56204e-07)
(0.0012831 -3.70555e-07 3.44048e-07)
(0.00128064 -3.58587e-07 3.40987e-07)
(0.00127823 -3.77423e-07 2.91748e-07)
(0.00127618 -7.46409e-07 4.68081e-07)
(0.00127336 -5.28761e-07 2.16651e-07)
(0.00127044 -3.99021e-07 3.47785e-07)
(0.00378915 -0.00153698 -0.000530272)
(0.00157251 0.000809377 -0.000122941)
(0.000567245 -0.000122053 0.000123601)
(-0.00112253 0.000707819 -0.000432581)
(0.0166745 0.00707434 -1.06107e-05)
(0.00205309 0.000464498 -0.000147837)
(0.000871337 -3.3418e-05 6.29217e-05)
(0.0013939 -0.000160123 3.35728e-07)
(0.0013673 -6.77844e-05 3.81778e-07)
(0.00136361 -6.0947e-05 3.51971e-07)
(0.00136395 -3.83909e-05 3.40439e-07)
(0.0013621 -2.54693e-05 3.4031e-07)
(0.00136072 -1.63528e-05 3.40484e-07)
(0.00135882 -1.05322e-05 3.38874e-07)
(0.00135679 -6.70297e-06 3.38964e-07)
(0.00135449 -4.26556e-06 2.77534e-07)
(0.00135201 -2.80573e-06 3.38185e-07)
(0.00134945 -2.01217e-06 2.13885e-07)
(0.00134705 -1.3548e-06 5.48338e-07)
(0.00134472 -6.54952e-07 3.06941e-07)
(0.00134227 -1.87904e-07 8.96501e-08)
(0.00133965 -3.84002e-07 3.69805e-07)
(0.00133694 -2.2997e-07 2.81757e-07)
(0.00133459 -2.39208e-07 3.23035e-07)
(0.00133219 5.51119e-10 2.46224e-07)
(0.00132932 1.18249e-08 4.45702e-07)
(0.00132666 -2.86985e-07 3.00039e-07)
(0.00132436 -5.3908e-07 3.31052e-07)
(0.00132149 -1.50719e-06 3.82546e-07)
(0.0013182 -9.76258e-07 -1.01801e-07)
(0.00131625 -1.06831e-06 3.80375e-07)
(0.00131483 -5.93417e-07 3.1367e-07)
(0.00131219 6.0696e-07 6.25988e-07)
(0.00131 4.95577e-07 6.59773e-07)
(0.00130746 -5.7139e-09 3.40963e-07)
(0.00130446 1.4437e-07 3.1869e-07)
(0.00130231 1.84478e-07 3.26465e-07)
(0.00130003 3.42632e-07 3.70557e-07)
(0.00129744 6.30626e-07 3.41565e-07)
(0.00129446 7.23268e-07 3.11437e-07)
(0.00129192 2.74387e-07 3.37199e-07)
(0.00128958 -1.13725e-07 3.99577e-07)
(0.00128724 -2.55496e-07 2.90421e-07)
(0.00128547 -5.97678e-07 2.0337e-07)
(0.00128313 -2.46029e-07 3.56584e-07)
(0.00128068 -2.88718e-07 3.42016e-07)
(0.00127843 8.35124e-08 4.42095e-07)
(0.00127603 -2.20922e-07 3.05821e-07)
(0.00127338 -5.55001e-07 3.64555e-07)
(0.00127165 -3.94164e-07 2.26428e-07)
(-0.00780201 0.000806027 -0.00135803)
(0.00370891 0.000161818 0.000696478)
(0.00676587 -0.000903247 0.00672543)
(-0.0136743 -0.00386937 0.00134331)
(-0.0344706 -0.0169092 0.00147261)
(-0.00506623 -0.00720356 -0.000680867)
(0.000615064 -0.000569948 -5.0848e-05)
(0.00137433 -0.000200175 4.0546e-07)
(0.00148388 -7.76002e-05 -2.33912e-07)
(0.00136804 -6.18479e-05 3.38639e-07)
(0.00138563 -3.78409e-05 3.46329e-07)
(0.00137514 -2.45228e-05 3.43661e-07)
(0.00137018 -1.5514e-05 3.4213e-07)
(0.00136504 -9.84213e-06 3.41501e-07)
(0.00136076 -6.2408e-06 3.40477e-07)
(0.00135698 -4.02107e-06 3.38083e-07)
(0.00135351 -2.57138e-06 3.39436e-07)
(0.00135084 -1.61569e-06 2.92058e-07)
(0.00134813 -1.4242e-06 3.51628e-07)
(0.00134535 -8.77562e-07 3.26662e-07)
(0.00134236 -8.26981e-07 5.65519e-07)
(0.00133957 -5.10344e-07 3.37439e-07)
(0.00133717 -4.29314e-07 4.48516e-07)
(0.00133458 -2.31921e-07 1.44932e-07)
(0.00133193 -3.8058e-07 3.60101e-07)
(0.00132906 -2.06801e-07 3.16006e-07)
(0.00132652 -1.98396e-07 3.38882e-07)
(0.00132353 -1.91437e-07 3.32678e-07)
(0.00132127 -2.43278e-07 1.62007e-07)
(0.00131937 5.56826e-07 2.84042e-07)
(0.0013171 1.30224e-06 3.57007e-07)
(0.00131551 1.16228e-06 3.28626e-07)
(0.00131299 5.1654e-07 7.89899e-07)
(0.00130926 5.58456e-07 4.16733e-07)
(0.00130668 -3.42524e-08 3.66281e-07)
(0.00130472 1.48142e-07 3.37386e-07)
(0.00130215 1.49066e-07 2.74999e-07)
(0.00129977 1.15291e-07 3.65069e-07)
(0.00129733 1.23559e-07 3.30744e-07)
(0.00129462 -8.3667e-08 4.12417e-07)
(0.00129183 4.69884e-08 5.72344e-08)
(0.00128919 1.27674e-07 2.09134e-08)
(0.00128749 6.01965e-07 4.55996e-07)
(0.00128592 5.7236e-07 4.64043e-07)
(0.00128349 5.0441e-07 3.28986e-07)
(0.00128105 4.96038e-07 3.99899e-07)
(0.00127832 5.92471e-07 3.79268e-07)
(0.00127538 3.34495e-07 3.3591e-07)
(0.00127316 1.70513e-07 2.85601e-07)
(0.00127162 1.317e-07 3.35697e-07)
(-0.000843465 -0.000984633 -5.89709e-05)
(-0.00147221 -0.000370043 0.00125927)
(0.00351883 0.0039444 0.00043409)
(0.0200574 0.0212487 -0.000208508)
(0.02837 0.0137644 -0.0318735)
(-0.0216467 -0.000913599 -0.00221757)
(-2.19908e-05 -0.00400612 -2.83968e-05)
(0.00155806 -0.00021851 4.47916e-06)
(0.00154997 -9.49509e-05 3.37282e-07)
(0.00141379 -4.82509e-05 6.12375e-07)
(0.001411 -2.78514e-05 3.54469e-07)
(0.00139025 -1.60096e-05 3.46881e-07)
(0.00137923 -9.58877e-06 3.43936e-07)
(0.00137051 -5.71008e-06 3.42879e-07)
(0.00136414 -3.4522e-06 3.4094e-07)
(0.00135912 -2.08541e-06 3.39798e-07)
(0.00135504 -1.27014e-06 3.38893e-07)
(0.00135091 -6.57617e-07 2.70979e-07)
(0.00134799 -6.8372e-07 3.23813e-07)
(0.00134548 -8.82366e-07 3.12818e-07)
(0.00134274 -7.05126e-07 3.38569e-07)
(0.00134015 -4.6283e-07 3.36242e-07)
(0.00133729 -4.83997e-07 3.06785e-07)
(0.00133465 -2.56652e-07 2.28024e-07)
(0.00133223 -2.56955e-07 2.85422e-07)
(0.00132955 1.07912e-08 3.6557e-07)
(0.00132668 3.06967e-07 3.93628e-07)
(0.0013243 5.74908e-07 4.03175e-07)
(0.00132243 1.45109e-06 2.84891e-07)
(0.00132013 1.21615e-06 4.72481e-07)
(0.001317 1.33628e-06 3.11054e-07)
(0.00131384 1.26149e-06 -3.148e-08)
(0.00131143 3.68429e-07 3.24151e-07)
(0.00130931 -3.98612e-08 3.29641e-07)
(0.00130695 2.48434e-07 2.4752e-07)
(0.00130469 6.01933e-08 3.08497e-07)
(0.00130227 -9.98979e-08 3.06407e-07)
(0.0013 -2.00649e-07 2.59612e-07)
(0.0012972 -5.93746e-07 1.99238e-07)
(0.00129437 -4.37825e-07 8.88016e-08)
(0.00129218 -1.08047e-07 2.52345e-07)
(0.00129027 2.98887e-07 3.21585e-07)
(0.00128779 6.77275e-07 3.90579e-07)
(0.00128534 6.45124e-07 2.54063e-07)
(0.00128303 9.44196e-08 1.93991e-07)
(0.00128078 1.79602e-08 3.19581e-07)
(0.00127822 -1.25552e-07 3.84536e-07)
(0.0012755 1.20783e-07 1.18363e-07)
(0.00127312 4.24612e-07 3.12785e-07)
(0.00127128 3.85437e-07 2.37886e-07)
(-0.00346327 0.00286386 -0.001231)
(-0.00311927 -0.00400435 -0.00179847)
(-0.057497 0.000384766 -0.0228812)
(-0.00298973 0.00720178 9.1372e-05)
(0.00914349 0.000276945 0.0163764)
(0.00565707 5.71403e-05 0.000608983)
(-0.00081711 -0.000415052 0.000119736)
(0.00144173 -0.000290536 2.37877e-05)
(0.00158863 -6.73716e-06 7.44449e-07)
(0.00145283 3.30315e-06 3.27489e-07)
(0.00142632 3.22141e-06 3.75026e-07)
(0.0013982 2.74606e-06 3.59487e-07)
(0.00138319 2.16527e-06 2.90657e-07)
(0.0013728 1.43507e-06 3.42679e-07)
(0.00136534 9.5863e-07 3.28955e-07)
(0.00135974 6.31015e-07 3.56457e-07)
(0.00135531 4.48226e-07 3.39229e-07)
(0.00135159 2.38058e-07 3.34788e-07)
(0.00134786 6.43377e-07 4.10327e-07)
(0.00134533 6.29e-07 4.15093e-07)
(0.0013429 2.72594e-07 3.70677e-07)
(0.00133985 2.7432e-07 4.48238e-07)
(0.00133743 1.52308e-07 7.91813e-07)
(0.00133487 1.23053e-07 1.12807e-07)
(0.00133226 2.38186e-07 3.49329e-07)
(0.00132976 -1.82721e-07 2.71391e-07)
(0.00132722 1.60596e-07 3.84872e-07)
(0.00132495 2.80012e-07 3.09705e-07)
(0.00132206 4.31412e-07 2.69124e-07)
(0.00131921 2.30068e-07 3.00616e-07)
(0.00131715 -9.47272e-09 3.51197e-07)
(0.00131429 -4.29345e-07 3.03973e-07)
(0.00131136 2.22818e-07 3.28154e-07)
(0.0013091 1.3705e-07 3.32364e-07)
(0.0013068 2.99665e-07 3.37163e-07)
(0.00130428 4.59431e-08 3.26907e-07)
(0.00130183 -7.09399e-09 3.50879e-07)
(0.00129915 -2.48984e-07 3.01592e-07)
(0.00129704 -3.98471e-07 4.52482e-07)
(0.00129523 -2.3076e-07 2.43814e-07)
(0.00129275 1.29156e-07 4.50952e-07)
(0.00129017 2.42431e-07 6.52724e-07)
(0.00128792 2.14891e-07 3.68643e-07)
(0.00128518 4.96251e-08 3.0132e-07)
(0.0012827 -2.31983e-07 6.17025e-07)
(0.00128078 -3.84382e-07 3.20942e-07)
(0.00127845 -8.27005e-07 1.24507e-07)
(0.00127607 -7.04952e-07 -4.62696e-08)
(0.00127348 -3.75099e-07 3.34685e-07)
(0.00127061 1.8632e-07 4.14403e-07)
(-0.0144631 -0.0131147 0.00164291)
(-0.00327689 -0.0682079 -0.0402885)
(-0.00431406 -0.020103 -0.00144023)
(0.00301369 0.000985857 0.00100656)
(0.0207644 0.0306684 -0.0128849)
(-0.000755176 0.00765734 -0.00387214)
(-0.000811194 0.00302819 3.4957e-05)
(0.00159087 0.000124153 2.27763e-05)
(0.0015421 0.000114189 6.78084e-07)
(0.00142576 6.40806e-05 3.98485e-07)
(0.00141045 3.82288e-05 3.1079e-07)
(0.00138902 2.28181e-05 3.44388e-07)
(0.00137764 1.39794e-05 2.70343e-07)
(0.00136903 8.50207e-06 3.41265e-07)
(0.00136315 5.24406e-06 3.61587e-07)
(0.00135849 3.27797e-06 3.42844e-07)
(0.00135456 2.12889e-06 3.38803e-07)
(0.00135115 1.4698e-06 3.74267e-07)
(0.00134848 9.83846e-07 3.86589e-07)
(0.00134501 1.35204e-06 4.13655e-07)
(0.00134229 1.01167e-06 2.52169e-07)