/*--------------------------------*- C++ -*----------------------------------*\
| =========                 |                                                 |
| \\      /  F ield         | OpenFOAM: The Open Source CFD Toolbox           |
|  \\    /   O peration     | Version:  5.0                                   |
|   \\  /    A nd           | Web:      www.OpenFOAM.org                      |
|    \\/     M anipulation  |                                                 |
\*---------------------------------------------------------------------------*/
FoamFile
{
    version     2.0;
    format      ascii;
    class       surfaceVectorField;
    location    "3.1";
    object      Uf;
}
// * * * * * * * * * * * * * * * * * * * * * * * * * * * * * * * * * * * * * //

dimensions      [0 1 -1 0 0 0 0];

internalField   nonuniform List<vector> 
25543
(
(0.000241279 -0.00491638 -3.10524e-05)
(0.000729008 -0.00251566 -7.63502e-05)
(0.00352759 -0.000846243 -1.84134e-05)
(0.000633386 -0.000639326 -7.40514e-05)
(0.00150907 -0.00197804 -0.000143872)
(0.00192906 -0.00190649 -0.000201012)
(0.0025958 -0.00148275 0.000301662)
(-9.12073e-05 0.00220515 -8.64587e-05)
(0.00224294 0.00236854 -0.000175677)
(0.00113925 -0.00363368 -0.000230178)
(0.00274504 -0.00180815 0.000378052)
(0.00344477 -0.0043877 6.87949e-05)
(0.000920543 -0.00745742 3.25675e-05)
(0.0020849 -0.00579757 8.96409e-05)
(0.00274313 -0.0042044 0.000773458)
(-0.00264054 0.00987138 0.000236096)
(0.00604628 0.00494866 -0.000552358)
(0.0143408 -0.000822684 -0.00140639)
(0.00661345 -0.00419498 0.000527013)
(0.00512181 0.00138914 -0.000355339)
(0.00901218 -0.0140262 0.000751574)
(0.0033863 -0.00117009 -0.00038118)
(-0.00790408 -0.0064051 -0.000239284)
(0.00365819 0.000602882 -0.000340908)
(0.00489681 0.00303635 -0.000191301)
(0.00142795 0.00356614 -0.00117787)
(0.000712801 -7.92217e-06 3.09733e-05)
(0.000447738 3.61014e-05 1.11364e-05)
(0.000714816 2.15505e-05 2.81146e-05)
(0.000356151 8.28036e-06 6.47992e-06)
(0.000854036 -5.71513e-06 -1.05701e-06)
(0.000869956 1.89686e-05 -2.11813e-06)
(0.00118688 -1.38174e-05 -1.77699e-06)
(0.000674896 1.65537e-05 -4.66263e-06)
(0.000627541 3.02083e-05 -4.34129e-06)
(0.00114781 3.59187e-05 -4.97335e-06)
(0.0010467 5.82785e-05 -4.37141e-06)
(0.000826532 -4.84431e-06 -3.92125e-08)
(0.000828041 1.13977e-05 -1.24151e-07)
(0.00110736 -1.03122e-05 1.33554e-07)
(0.000818845 -3.89204e-06 5.85625e-08)
(0.000819441 -4.99403e-07 6.44001e-08)
(0.00109398 -8.1883e-06 1.79927e-07)
(0.000815165 -2.78657e-06 5.60943e-08)
(0.000816523 -1.97262e-06 4.68512e-08)
(0.00108787 -5.65713e-06 1.79777e-07)
(0.000814078 -1.92476e-06 3.69564e-08)
(0.00081478 -2.22388e-06 6.06958e-08)
(0.00108546 -3.94002e-06 1.72856e-07)
(0.000813665 -1.1273e-06 3.75079e-08)
(0.000814191 -1.83423e-06 2.7271e-08)
(0.00108511 -2.56452e-06 1.8302e-07)
(0.000811927 -6.43783e-07 6.23947e-08)
(0.000813087 -1.67472e-06 6.09823e-08)
(0.00108383 -1.33169e-06 1.59712e-07)
(0.000810953 -5.19677e-07 3.99884e-08)
(0.0008117 -1.14258e-06 5.1498e-08)
(0.00108206 -9.54852e-07 1.85193e-07)
(0.000809587 -3.57301e-07 3.98616e-08)
(0.00081055 6.02763e-07 4.70555e-08)
(0.0010806 -7.62049e-07 1.48213e-07)
(0.000808531 -7.63484e-08 5.10105e-08)
(0.000809353 -5.35634e-07 5.01029e-08)
(0.00107903 -3.91366e-07 1.78336e-07)
(0.000806619 3.80731e-08 5.81493e-08)
(0.000807768 -2.88511e-07 5.73976e-08)
(0.00107713 3.04799e-08 1.48214e-07)
(0.000805339 -7.98941e-08 7.75649e-08)
(0.000806032 -4.04981e-07 1.69408e-08)
(0.00107493 -6.38741e-08 1.78672e-07)
(0.000803847 -2.43653e-07 7.30948e-08)
(0.00080456 -1.32451e-07 5.92399e-08)
(0.00107308 -2.39656e-07 1.65373e-07)
(0.000802502 -2.26945e-07 5.6916e-08)
(0.000803273 -8.07457e-08 8.34061e-08)
(0.00107127 -4.14645e-07 2.18137e-07)
(0.000801242 -1.17856e-07 4.5475e-08)
(0.000801903 -3.80799e-07 5.87213e-08)
(0.0010695 -1.23192e-07 1.64041e-07)
(0.000799488 -7.25401e-08 9.67777e-08)
(0.000800304 2.107e-07 3.5241e-08)
(0.00106746 -1.06171e-07 1.80917e-07)
(0.00079795 -5.66193e-08 1.05871e-07)
(0.000798724 -1.57637e-07 1.15816e-07)
(0.00106528 -1.63823e-08 1.79829e-07)
(0.000796425 -7.27455e-08 2.79615e-08)
(0.000797199 2.70924e-08 4.67734e-08)
(0.00106322 -4.84193e-08 1.79884e-07)
(0.000795039 -6.22917e-08 2.73399e-08)
(0.000795712 1.20421e-07 2.71971e-08)
(0.0010613 -1.70167e-08 1.63942e-07)
(0.000793512 -3.98818e-08 4.89397e-08)
(0.000794218 1.01776e-07 4.24917e-08)
(0.00105936 -3.91541e-08 1.69712e-07)
(0.000791999 7.07898e-08 6.85857e-08)
(0.000792833 -7.21365e-08 4.84395e-08)
(0.00105748 -1.89787e-08 1.75152e-07)
(0.000790458 5.58729e-09 7.49554e-08)
(0.00079119 -2.06484e-07 8.01235e-08)
(0.0010553 2.0737e-07 1.21695e-07)
(0.00078893 -3.41635e-07 7.46436e-08)
(0.000789444 1.30991e-07 7.18687e-08)
(0.00105317 -2.36412e-07 2.05502e-07)
(0.000787208 -5.54533e-07 1.68425e-08)
(0.000787996 -5.22377e-07 5.33372e-09)
(0.00105114 -7.61273e-07 3.9596e-07)
(0.000785853 -5.23587e-07 1.54303e-08)
(0.000786514 -5.80989e-07 -2.05586e-08)
(0.0010489 -7.86538e-07 3.12126e-07)
(0.00078431 -2.86664e-07 7.28523e-08)
(0.000785261 -4.42161e-07 1.14762e-07)
(0.00104707 -6.22227e-07 1.87376e-07)
(0.000783332 -5.33382e-08 5.23285e-08)
(0.000784084 -1.19432e-06 7.75664e-08)
(0.00104557 -1.5043e-07 1.99237e-07)
(0.000781711 1.20082e-08 4.53114e-08)
(0.000782546 4.0888e-08 4.53191e-08)
(0.00104374 1.77467e-08 1.77447e-07)
(0.000780171 7.22584e-08 9.97651e-08)
(0.000780995 1.64067e-07 4.20643e-08)
(0.00104162 5.99087e-08 1.69904e-07)
(0.000778405 1.65248e-07 9.69486e-08)
(0.000779509 3.28779e-07 9.73503e-08)
(0.00103941 1.60364e-07 1.81401e-07)
(0.000776789 4.05564e-07 5.78792e-08)
(0.000778014 4.74917e-07 2.07221e-08)
(0.001037 2.86672e-07 1.46879e-07)
(0.000776598 3.96043e-07 6.11556e-08)
(0.00077663 -2.72832e-06 4.69925e-08)
(0.00103588 7.97392e-07 2.23654e-07)
(0.000774694 1.24894e-07 3.41387e-08)
(0.000775202 3.17046e-07 2.53634e-07)
(0.00103462 3.18443e-07 1.82667e-07)
(0.00077313 5.71012e-08 4.76871e-08)
(0.000773722 7.33406e-08 4.22467e-08)
(0.00103221 8.84001e-08 1.65321e-07)
(0.000771878 -3.83148e-08 4.71722e-08)
(0.000772324 -1.30386e-08 3.47848e-08)
(0.0010302 7.10549e-08 1.63703e-07)
(0.00077074 -2.77964e-07 5.18583e-09)
(0.000770949 -4.23354e-07 3.38173e-08)
(0.00102887 -2.10757e-07 1.79579e-07)
(0.000768441 -3.28428e-07 1.26089e-08)
(0.00076951 2.92485e-06 5.25311e-08)
(0.00102649 -5.37437e-07 7.32335e-08)
(0.00076714 -1.80793e-07 4.59004e-08)
(0.000768075 -3.12166e-07 4.6225e-08)
(0.00102405 -3.19744e-07 1.76873e-07)
(0.000765676 -4.62245e-08 5.23486e-08)
(0.000766618 1.81826e-07 5.57029e-08)
(0.00102224 -1.97155e-07 1.64024e-07)
(0.000764895 -3.77537e-08 5.60338e-08)
(0.000765305 -6.87612e-07 5.21578e-08)
(0.00102064 1.57313e-08 1.60353e-07)
(0.000763319 -2.43657e-07 5.47596e-08)
(0.000763991 1.49693e-07 3.13577e-08)
(0.00101926 -1.81676e-07 1.76683e-07)
(0.000761615 -3.44955e-07 2.8358e-08)
(0.000762424 -3.12673e-07 -1.36304e-08)
(0.00101692 -5.01644e-07 2.11339e-07)
(0.000761129 9.07634e-07 6.02687e-08)
(0.00101477 -4.08955e-07 1.09687e-07)
(0.00131032 0.000838136 -0.000189147)
(0.00708667 0.00114116 -0.000494563)
(0.0028467 -0.000780541 -0.000283528)
(0.00135497 0.00142339 -0.000156298)
(0.00578608 0.00152788 0.000343987)
(0.00192497 0.00162003 -0.000238071)
(0.000379049 0.00288945 7.57405e-05)
(9.40532e-05 0.00285537 -0.000223874)
(0.000283136 0.000346799 3.80659e-05)
(0.000492319 0.00664669 2.29846e-05)
(0.00492397 -0.00195053 -0.00013518)
(0.000197359 0.00313767 -0.000131895)
(-0.00481966 0.0105846 9.31102e-05)
(0.00787752 0.00704072 6.51074e-05)
(-0.00371979 0.00531522 -0.000395476)
(0.00173416 -0.00382959 -0.000122041)
(0.0037745 -0.0016102 1.99333e-05)
(0.00320043 -0.00490701 0.000176998)
(-0.00126192 -0.00742147 0.00029895)
(-0.00606779 0.00350907 0.000357449)
(-0.00341984 0.00997961 -3.92599e-05)
(0.00406691 0.00777775 -9.65087e-05)
(-0.0016666 0.00830924 -0.000520474)
(-0.00428881 0.00599408 -6.42763e-05)
(-0.00272106 0.00566705 -0.000220721)
(-0.00545068 0.00730578 -0.000242928)
(0.00244552 -0.00566069 -0.000176352)
(0.00248543 -0.0085883 -0.000320578)
(0.0024511 -0.00301612 -4.84201e-05)
(0.000940484 -0.000360626 -8.69628e-05)
(0.00588399 -0.00607374 -0.000353882)
(0.00109977 3.96087e-05 2.23962e-05)
(0.000455769 -6.05269e-07 3.2019e-05)
(0.000427977 -2.37464e-05 3.70963e-05)
(0.000578774 4.59997e-05 6.80668e-05)
(0.000311118 1.3942e-05 1.76047e-05)
(0.000829823 2.44619e-05 -1.18592e-06)
(0.000547814 2.83306e-05 -9.3758e-07)
(0.00112176 2.08868e-05 -1.49489e-06)
(0.000595753 4.20541e-05 -4.61041e-06)
(0.000592082 2.89335e-05 -3.23091e-06)
(0.0010044 6.56387e-05 -4.60108e-06)
(0.0010228 3.4359e-05 -5.47484e-07)
(0.000530877 1.55401e-06 -4.01446e-06)
(0.000913634 2.10657e-05 -2.08826e-07)
(0.000872232 -1.39593e-05 -4.9925e-06)
(0.000817214 1.19726e-05 -2.06002e-08)
(0.000829309 2.59713e-05 -7.74216e-07)
(0.00109484 2.54096e-05 1.26858e-07)
(0.000816539 -9.76374e-07 5.26946e-08)
(0.000803416 -1.41769e-06 -1.92027e-07)
(0.00108838 -3.67246e-06 1.65194e-07)
(0.000815344 -2.34573e-06 5.14482e-08)
(0.000814868 -2.45476e-06 1.30628e-07)
(0.00108826 -4.62615e-06 1.78729e-07)
(0.000814698 -2.56872e-06 5.10212e-08)
(0.00081454 -3.39623e-06 4.95571e-08)
(0.00108684 -4.92702e-06 1.78919e-07)
(0.000813857 -2.2124e-06 5.07344e-08)
(0.000814664 -2.77181e-06 5.85186e-08)
(0.00108604 -3.85968e-06 1.8043e-07)
(0.000812633 -1.74781e-06 5.00887e-08)
(0.000813687 -2.13289e-06 5.25205e-08)
(0.00108465 -3.17357e-06 1.80484e-07)
(0.000811278 -1.24151e-06 5.85665e-08)
(0.000812346 -1.45177e-06 5.33188e-08)
(0.00108291 -2.15537e-06 1.80865e-07)
(0.000810305 -8.83568e-07 5.72958e-08)
(0.000811006 -8.81762e-07 5.92224e-08)
(0.00108137 -1.56134e-06 2.288e-07)
(0.000808817 -7.00212e-07 5.64877e-08)
(0.000809588 -6.27528e-07 5.3783e-08)
(0.00107978 -1.04883e-06 1.77756e-07)
(0.000806976 -4.2661e-07 1.62022e-08)
(0.000808114 5.09797e-07 5.12224e-08)
(0.00107752 -9.86663e-07 1.47193e-07)
(0.000805302 -1.15486e-07 -1.3977e-09)
(0.000806423 1.99557e-06 7.0759e-08)
(0.00107515 -2.84307e-07 2.23915e-08)
(0.000803856 9.71041e-09 6.95435e-08)
(0.000804718 -3.14912e-07 3.32852e-08)
(0.00107308 -1.28602e-07 1.81645e-07)
(0.000802773 5.04228e-08 8.52193e-08)
(0.000803324 -8.22662e-07 6.77823e-08)
(0.00107147 1.00382e-07 1.89289e-07)
(0.000800993 -8.83187e-10 4.84947e-08)
(0.000801839 -7.185e-08 5.36001e-08)
(0.00106955 -5.98004e-09 1.77355e-07)
(0.000799553 -2.93832e-08 5.4254e-08)
(0.000800269 1.10235e-07 4.97406e-08)
(0.00106731 -8.46424e-09 1.7658e-07)
(0.000797902 -1.80899e-08 5.67405e-08)
(0.000798739 5.73024e-08 5.43139e-08)
(0.00106533 -4.61058e-08 1.73218e-07)
(0.000796489 -2.91746e-08 4.60153e-08)
(0.000797185 1.63431e-09 5.36389e-08)
(0.00106332 3.94709e-08 1.69775e-07)
(0.000794923 -1.27681e-07 4.2344e-08)
(0.000795589 -1.08015e-09 6.26033e-08)
(0.00106124 -5.98871e-08 1.90054e-07)
(0.000793488 -2.19139e-07 4.19897e-08)
(0.000794104 8.45192e-09 4.61454e-08)
(0.0010592 -2.27502e-07 1.76884e-07)
(0.000792108 -4.15579e-07 5.99673e-08)
(0.000792589 -2.41177e-07 5.16176e-08)
(0.00105743 -3.41392e-07 1.77744e-07)
(0.000790137 -5.55611e-07 7.70394e-08)
(0.000791017 -8.30278e-07 3.34148e-08)
(0.00105518 -8.37051e-07 2.62053e-07)
(0.000788515 -4.20099e-07 2.5797e-09)
(0.000789616 -5.3301e-07 3.83036e-08)
(0.00105261 -7.26957e-07 2.34382e-07)
(0.000787251 -2.14933e-07 -3.20593e-08)
(0.000788254 6.3034e-08 6.6557e-08)
(0.00105085 -4.5175e-07 1.14705e-07)
(0.000785843 1.83354e-07 7.87313e-08)
(0.000787012 3.97117e-07 3.91483e-08)
(0.00104917 -1.89797e-07 9.97437e-08)
(0.000785132 4.82645e-07 1.19488e-07)
(0.000785634 -3.34838e-06 5.69205e-08)
(0.00104765 6.55792e-07 3.13584e-07)
(0.000783304 3.62353e-07 7.05671e-08)
(0.000783932 -1.64407e-06 5.61415e-08)
(0.00104605 6.42272e-07 2.38724e-07)
(0.000781785 2.32772e-07 4.2073e-08)
(0.000782383 1.93354e-07 6.87529e-08)
(0.00104377 3.15468e-07 1.68494e-07)
(0.000780381 2.20762e-07 3.96322e-08)
(0.000780979 7.92485e-08 4.54354e-08)
(0.00104171 2.82162e-07 1.75244e-07)
(0.000779081 3.17618e-07 2.11475e-08)
(0.000779629 2.14228e-07 6.35901e-08)
(0.00103994 2.8769e-07 1.68317e-07)
(0.000777826 5.70966e-07 9.82724e-09)
(0.000778329 1.40053e-07 2.82922e-08)
(0.00103836 5.42551e-07 1.8017e-07)
(0.000775294 4.8246e-07 2.39407e-07)
(0.000776517 -9.40916e-07 2.0993e-08)
(0.0010358 9.56481e-07 1.42517e-07)
(0.000774183 1.62339e-07 2.61807e-07)
(0.000774801 1.60191e-07 2.55134e-07)
(0.00103324 3.5706e-07 1.54672e-07)
(0.000772886 1.67296e-08 2.93467e-08)
(0.00077354 -1.19251e-07 7.00352e-08)
(0.00103167 1.30302e-07 1.74067e-07)
(0.000771525 -1.23284e-07 2.14302e-08)
(0.000772149 -1.15485e-07 1.58499e-08)
(0.00102993 -7.69842e-08 1.73442e-07)
(0.000769587 -3.74738e-07 8.11568e-08)
(0.000770636 1.65167e-07 8.47296e-08)
(0.00102766 -2.48986e-07 1.75846e-07)
(0.000769198 -3.27374e-07 8.61491e-08)
(0.00076957 2.65225e-07 1.0447e-07)
(0.00102625 -7.34298e-07 2.71008e-07)
(0.000767545 -5.11276e-08 5.60246e-08)
(0.000768421 1.69989e-08 6.3501e-08)
(0.00102484 -1.46164e-07 1.68924e-07)
(0.000766145 1.74879e-07 5.55131e-08)
(0.0007669 1.16127e-07 5.37495e-08)
(0.00102278 -5.49721e-08 1.74943e-07)
(0.000764528 2.14869e-07 2.7488e-08)
(0.000765355 -1.14515e-06 8.98702e-08)
(0.00102084 4.43513e-07 2.23276e-07)
(0.000763055 -6.1928e-09 -3.70185e-08)
(0.000763715 2.87898e-07 3.66963e-08)
(0.00101871 7.76556e-08 1.66901e-07)
(0.00076184 -1.31589e-07 1.82579e-08)
(0.00076227 1.10933e-07 -1.39772e-08)
(0.00101685 -1.48911e-07 1.22518e-07)
(0.000761292 -1.2966e-07 1.10845e-07)
(0.00101549 -2.45594e-07 2.31492e-07)
(0.0139901 0.00152913 3.82916e-05)
(0.00695725 0.00276631 -0.000428897)
(0.00236446 0.00213522 -0.00120679)
(0.00289539 0.00419996 0.000276599)
(0.00918238 -0.000328062 0.000437944)
(0.00673254 0.000210791 0.00105115)
(0.00409786 0.000100815 -0.000434823)
(0.00670177 0.0111173 0.000126647)
(0.00397808 0.00331573 0.0111968)
(-0.00213181 0.010401 0.000328368)
(0.00829515 0.0114172 -0.000288178)
(0.0184097 0.00199691 0.00588931)
(0.00439399 0.0033193 0.0113575)
(0.00427518 0.00513309 -0.0105656)
(0.00627168 0.00669851 -0.0139657)
(0.013573 0.00589514 8.12358e-05)
(-0.0095024 -0.0110634 -0.00111087)
(-0.00518404 -0.00538533 0.000858916)
(0.00995189 -0.0033418 0.00108866)
(0.000678479 -0.000330657 -3.49514e-05)
(0.0051045 0.00509783 0.00337662)
(-0.00465677 -0.000246904 0.000529471)
(-0.00301618 0.00511532 -0.0015758)
(0.000505187 -0.00175003 3.13263e-05)
(-0.00718751 -0.0084057 -0.00345503)
(-0.00819257 -0.00430908 -0.0023349)
(-0.00712018 -0.00541206 0.00384841)
(0.00379151 0.0144909 0.000198424)
(0.00881747 0.004184 0.000413124)
(0.0083316 0.0126871 0.00113924)
(0.00666196 0.0082991 0.000520559)
(-0.0026494 0.00379586 -0.000195274)
(-0.000991427 0.00459833 2.49529e-05)
(-0.000366757 0.00507006 -8.99326e-05)
(-0.00156982 0.00792583 0.000272117)
(-0.00238071 0.00694528 -0.000330801)
(0.000189567 0.000102085 2.96954e-05)
(0.000992725 0.000186305 -1.03465e-05)
(0.00110462 0.000171723 4.30979e-05)
(0.00112735 0.000149911 -7.79359e-05)
(0.00112574 2.98246e-05 1.0524e-05)
(0.000278278 6.34134e-06 -2.10363e-06)
(0.000421068 1.39116e-06 -2.7033e-06)
(0.000399328 -1.33401e-05 9.26946e-08)
(0.000675044 -2.70903e-06 -2.0087e-08)
(0.000272548 1.04312e-05 -1.61378e-06)
(0.000499932 5.95349e-06 -2.81123e-06)
(0.000498149 1.5379e-05 2.27114e-07)
(0.000793263 -5.96556e-06 -9.45833e-07)
(0.00084865 -3.43995e-05 -1.43379e-06)
(0.00112127 -6.24082e-06 -7.50346e-07)
(0.000549039 -1.96752e-06 -3.74072e-06)
(0.000561658 -1.10681e-05 -4.65045e-06)
(0.00089756 -1.69693e-05 -4.71898e-06)
(0.000933347 -3.33679e-05 -5.90117e-06)
(0.00080801 -9.12476e-06 -1.14199e-07)
(0.00079956 -2.04083e-05 -3.12508e-07)
(0.00105691 -1.72992e-05 8.06304e-08)
(0.000813557 -6.44304e-06 1.28763e-07)
(0.0008183 -1.19068e-05 1.91685e-07)
(0.00108647 -1.14225e-05 2.15833e-07)
(0.000814959 -4.67384e-06 5.70516e-08)
(0.000816805 -7.18117e-06 4.48505e-08)
(0.00108653 -8.36558e-06 1.82212e-07)
(0.00081464 -3.18897e-06 6.03066e-08)
(0.000816555 -4.42537e-06 6.27635e-08)
(0.00108738 -5.65844e-06 1.84697e-07)
(0.000813476 -2.11426e-06 5.57504e-08)
(0.000815053 -2.70369e-06 5.47499e-08)
(0.00108601 -3.78983e-06 1.82721e-07)
(0.000811979 -1.33277e-06 5.39728e-08)
(0.000813337 -1.59962e-06 5.20044e-08)
(0.00108411 -2.43213e-06 1.82056e-07)
(0.00081042 -8.97254e-07 5.57112e-08)
(0.000811559 -9.43739e-07 5.08535e-08)
(0.00108201 -1.50295e-06 1.81753e-07)
(0.000808837 -7.14932e-07 4.85185e-08)
(0.000809822 -6.88062e-07 5.33744e-08)
(0.00107976 -1.13304e-06 1.83982e-07)
(0.000807737 -6.28048e-07 1.05773e-07)
(0.000808228 -9.20213e-07 5.97957e-08)
(0.0010781 -9.10391e-07 2.37017e-07)
(0.000805659 -4.42206e-07 1.05454e-07)
(0.000806659 4.24742e-07 1.2238e-07)
(0.00107601 -8.5976e-07 3.31885e-07)
(0.000804138 -1.98642e-07 3.15129e-08)
(0.000805025 -3.13715e-07 3.35929e-08)
(0.00107357 -4.08227e-07 1.75396e-07)
(0.000802485 -1.44378e-07 3.61677e-08)
(0.000803393 -4.37099e-07 4.29307e-08)
(0.00107143 -2.13221e-07 1.60552e-07)
(0.000801083 -1.42081e-07 5.48472e-08)
(0.000801843 -2.58244e-07 4.95314e-08)
(0.00106936 -2.43066e-07 1.78833e-07)
(0.000799477 -1.24797e-07 4.97991e-08)
(0.000800291 -3.61941e-07 2.64528e-08)
(0.00106742 -1.70612e-07 2.16922e-07)
(0.000797991 -1.58165e-07 5.12125e-08)
(0.000798698 -1.89448e-07 5.29647e-08)
(0.00106534 -1.63267e-07 1.91104e-07)
(0.000796274 -1.57429e-07 7.02241e-08)
(0.000797186 -5.11518e-07 7.06676e-08)
(0.00106321 -2.59531e-07 2.30372e-07)
(0.000794742 -1.17389e-07 6.64099e-08)
(0.00079564 1.51383e-07 7.37717e-08)
(0.00106097 -1.64763e-07 1.6797e-07)
(0.000793259 -9.48297e-08 5.57716e-08)
(0.000794132 1.02015e-07 6.13038e-08)
(0.00105901 -1.24869e-07 1.67971e-07)
(0.000791526 -1.33079e-07 2.50708e-08)
(0.000792542 -5.38728e-08 5.70464e-08)
(0.00105673 -9.45265e-08 1.8366e-07)
(0.000790334 1.76314e-08 -5.32249e-09)
(0.000791205 5.50136e-07 1.84235e-08)
(0.00105483 -2.19023e-07 5.22058e-08)
(0.000789531 3.0184e-07 1.02272e-07)
(0.00078997 8.23452e-07 2.28393e-08)
(0.00105366 3.27354e-07 1.9446e-08)
(0.000787844 4.17563e-07 1.37773e-07)
(0.000788397 3.43729e-07 1.41923e-07)
(0.00105182 5.90715e-07 1.73752e-07)
(0.000786923 4.77514e-07 1.7332e-08)
(0.000787085 4.13581e-07 6.04787e-08)
(0.00105028 6.41393e-07 1.24776e-07)
(0.000784456 3.96199e-07 -6.42598e-09)
(0.00078553 -1.079e-07 7.07392e-09)
(0.00104811 6.58734e-07 3.30719e-08)
(0.000782935 2.13393e-07 5.43233e-08)
(0.000783702 1.68073e-07 3.36375e-08)
(0.00104514 3.92836e-07 5.04782e-08)
(0.000781558 1.617e-07 7.21225e-08)
(0.000782318 8.36022e-09 5.12581e-08)
(0.00104329 1.66193e-07 1.79892e-07)
(0.000780221 1.4987e-07 6.93876e-08)
(0.000780964 -9.71833e-08 4.62624e-08)
(0.00104158 2.18245e-07 1.75735e-07)
(0.000778864 7.23259e-08 7.07457e-08)
(0.000779532 1.01775e-07 6.29564e-08)
(0.00103973 1.53452e-07 1.7325e-07)
(0.000777332 -7.58258e-08 3.94602e-08)
(0.000778143 -4.44319e-09 5.46724e-08)
(0.00103783 4.31859e-08 1.91318e-07)
(0.000775578 -5.60181e-08 3.66475e-08)
(0.000776542 -2.15059e-07 1.91367e-08)
(0.00103564 -2.14853e-07 1.48881e-07)
(0.000774329 6.13676e-08 6.34189e-08)
(0.000774948 -4.08094e-08 4.29317e-08)
(0.00103358 5.49967e-08 1.70258e-07)
(0.00077277 1.27283e-09 5.65551e-08)
(0.000773464 1.02241e-07 6.93849e-08)
(0.00103167 6.40568e-08 1.6787e-07)
(0.000771438 7.87006e-08 7.91281e-08)
(0.000772246 -1.44155e-07 7.03449e-08)
(0.00102972 -4.30407e-08 1.65529e-07)
(0.000770156 3.83531e-07 1.08036e-07)
(0.000771015 -1.32867e-06 1.33798e-07)
(0.00102805 3.25878e-07 2.67125e-07)
(0.000769223 4.32815e-07 8.18341e-08)
(0.00076963 -1.19806e-06 4.57636e-08)
(0.00102662 7.46396e-07 2.33557e-07)
(0.00076764 3.00727e-07 6.12289e-08)
(0.000768254 9.79152e-09 4.82004e-08)
(0.00102491 4.61073e-07 1.87146e-07)
(0.000766206 2.96307e-07 8.80955e-08)
(0.000766893 -6.65822e-09 4.70136e-08)
(0.00102298 4.25859e-07 1.82146e-07)
(0.000764433 3.65484e-07 9.90947e-08)
(0.00076544 -4.78647e-08 9.88903e-08)
(0.00102081 4.19546e-07 1.24188e-07)
(0.000762969 3.41576e-07 5.9753e-08)
(0.000763683 3.93668e-07 6.15594e-08)
(0.00101852 5.61311e-07 1.68347e-07)
(0.000761485 2.01822e-07 7.85719e-08)
(0.000762093 1.84387e-07 4.63339e-08)
(0.00101652 3.24065e-07 1.72754e-07)
(0.00076104 -1.26594e-06 1.32767e-07)
(0.00101526 1.92829e-07 2.10185e-07)
(0.00408582 0.000621609 -2.95332e-05)
(0.00473504 -0.00234657 -0.000161985)
(0.000262209 0.000283951 -6.88546e-05)
(0.00477544 0.00149153 -0.000253162)
(0.00718346 -0.00319871 -0.000581049)
(0.00464032 0.00295839 0.000290066)
(0.0111551 0.00474889 0.000234291)
(0.0043602 0.00541882 2.86978e-05)
(0.00163351 -0.000524004 0.00129661)
(0.0104401 0.000212166 0.00291455)
(0.0064962 0.00205159 0.00115434)
(0.0119277 0.00294606 -0.00639487)
(0.012071 0.0106651 -4.74009e-05)
(0.00758808 0.00827569 -0.000180442)
(-0.0038779 0.00261425 0.000679597)
(0.0154812 -0.00408283 -0.000401831)
(0.00212824 0.00540754 -0.000865161)
(0.020198 -0.00587563 -0.000366859)
(0.00741906 0.0063643 0.000498001)
(0.0125956 0.00913828 0.000152062)
(0.0110262 0.0100356 0.000445452)
(-0.0202326 0.00013 -0.000369111)
(-0.00439391 -0.00407639 -0.000216577)
(-0.0157162 -0.0010599 -0.00183339)
(-0.0137979 0.00427644 -0.00199934)
(0.0107375 -0.0184168 -0.00613051)
(0.0286297 -0.0057417 -0.00528216)
(0.0167932 0.0144437 -0.00463689)
(-0.0164158 -0.0034578 -0.00654762)
(0.0571315 0.0341665 -0.175312)
(-0.0195462 -0.0521477 -0.0349452)
(0.0100831 0.014563 0.040409)
(0.041605 -0.00665685 0.145871)
(-0.00111764 0.00175967 -3.44192e-05)
(-0.00844978 -0.00208319 0.00114704)
(-0.00268216 -0.00171524 -4.88811e-05)
(-0.00651008 -0.00107293 -1.60633e-06)
(-0.00505805 0.00210588 -0.000294669)
(-0.00087743 -0.00118101 1.27505e-05)
(-0.000149085 -0.000684978 6.0049e-06)
(-0.000372349 -0.00122533 -1.29373e-05)
(-0.000686998 -0.00194701 -3.6313e-05)
(-1.43989e-05 -0.00078332 4.89006e-05)
(0.000307371 -6.67737e-05 1.25562e-05)
(0.00043716 -4.7512e-05 -2.37176e-06)
(0.000709657 -0.000112576 5.39249e-06)
(0.000329288 -0.000106676 2.23807e-05)
(0.000549646 -0.000116789 3.15049e-05)
(0.000592979 -0.000172487 5.45247e-05)
(0.000411862 -3.8208e-05 6.95691e-07)
(0.000330154 -6.95601e-05 2.0074e-06)
(0.000612438 -0.000143281 9.152e-06)
(0.000527616 -0.000146041 -1.05009e-06)
(0.00028414 -7.33448e-05 -1.33578e-06)
(0.00081603 -4.30824e-05 -8.00827e-07)
(0.000886827 -6.21858e-05 -1.84792e-06)
(0.00115405 -7.82738e-05 -9.94318e-07)
(0.000569774 -3.83245e-05 -4.11081e-06)
(0.00059818 -5.02739e-05 -4.48379e-06)
(0.000937684 -6.47992e-05 -4.90372e-06)
(0.00101984 -8.79131e-05 -5.32778e-06)
(0.00082102 -2.12993e-05 -6.7888e-09)
(0.000827 -2.7282e-05 -2.81143e-07)
(0.00108218 -3.71842e-05 8.56685e-08)
(0.00082082 -1.15628e-05 1.0782e-07)
(0.000830566 -1.41245e-05 1.36421e-07)
(0.00109966 -2.03579e-05 2.12245e-07)
(0.000819134 -6.43825e-06 5.05566e-08)
(0.000823266 -7.09859e-06 2.27357e-07)
(0.0010942 -1.10667e-05 1.82172e-07)
(0.000817136 -3.70822e-06 5.72093e-08)
(0.00082 -3.99299e-06 8.4237e-08)
(0.00109185 -6.5255e-06 1.85536e-07)
(0.000815033 -2.00558e-06 5.10048e-08)
(0.0008172 -2.1025e-06 5.0766e-08)
(0.00108874 -3.66608e-06 1.82757e-07)
(0.000812928 -1.04506e-06 4.88855e-08)
(0.000814549 -9.76734e-07 4.21916e-08)
(0.00108581 -1.91168e-06 1.81282e-07)
(0.000810979 -6.26155e-07 4.85158e-08)
(0.000812089 -4.98758e-07 3.6581e-08)
(0.00108302 -1.04961e-06 1.80331e-07)
(0.000809155 -3.81768e-07 6.46495e-08)
(0.000810131 -3.88154e-07 4.8972e-08)
(0.00108053 -7.23885e-07 1.80013e-07)
(0.000807268 -3.43136e-07 7.63827e-08)
(0.000808279 -1.67545e-07 6.50084e-08)
(0.00107788 -3.32742e-07 1.54411e-07)
(0.000805952 -4.41578e-07 5.05475e-08)
(0.000806538 1.14655e-08 6.76079e-08)
(0.00107579 -5.90813e-07 1.86075e-07)
(0.000804305 -4.02308e-07 4.50076e-08)
(0.000805076 -2.10962e-07 -1.51028e-08)
(0.0010739 -6.06114e-07 1.79376e-07)
(0.00080269 -3.1527e-07 5.62923e-08)
(0.000803504 -4.11907e-07 6.4946e-08)
(0.00107168 -4.99997e-07 1.82297e-07)
(0.000801114 -2.72614e-07 2.11443e-08)
(0.000801898 -2.39575e-07 4.16896e-08)
(0.0010696 -3.67371e-07 1.79745e-07)
(0.000799448 -2.102e-07 2.961e-08)
(0.00080037 9.35165e-07 2.34226e-08)
(0.00106741 -3.87739e-07 9.88627e-08)
(0.000797928 -1.26245e-07 7.24141e-08)
(0.000798804 4.42675e-08 8.63177e-08)
(0.00106522 -2.00563e-07 1.60531e-07)
(0.000796511 -1.6482e-08 7.42142e-08)
(0.000797324 1.09388e-07 7.67874e-08)
(0.00106332 -1.67465e-07 1.24784e-07)
(0.00079502 1.65623e-07 6.86696e-08)
(0.000795867 2.39956e-07 6.48248e-08)
(0.00106141 8.58439e-08 1.68864e-07)
(0.000793491 3.31204e-07 6.258e-08)
(0.000794338 2.3695e-08 6.62255e-08)
(0.00105929 3.3421e-07 1.84095e-07)
(0.000792095 5.60114e-07 5.04113e-08)
(0.000792825 5.52366e-07 6.00967e-08)
(0.00105731 5.67025e-07 1.24637e-07)
(0.000790881 5.65686e-07 4.65839e-08)
(0.000791208 7.2044e-07 1.35625e-07)
(0.00105571 1.02259e-06 1.39444e-07)
(0.000788902 3.8445e-07 6.24526e-08)
(0.00078974 6.01977e-08 4.75037e-08)
(0.00105362 6.36823e-07 2.72933e-07)
(0.000787466 4.18988e-07 6.46539e-08)
(0.000788437 3.54447e-07 6.4392e-08)
(0.00105123 5.49482e-07 1.70561e-07)
(0.000786029 2.11649e-07 5.02373e-08)
(0.000786823 4.0654e-07 4.82765e-08)
(0.00104925 7.25372e-07 1.72103e-07)
(0.000784514 -5.66248e-08 4.71291e-08)
(0.000785193 -7.08457e-08 3.83114e-08)
(0.00104733 -2.39086e-08 1.75996e-07)
(0.000783105 6.10254e-09 3.05668e-08)
(0.00078378 4.90977e-08 4.97645e-08)
(0.00104543 -4.95832e-08 1.77881e-07)
(0.000781761 4.71548e-08 2.53996e-08)
(0.000782369 -8.5356e-08 2.96255e-08)
(0.00104355 9.32404e-08 1.70449e-07)
(0.000780217 -2.0755e-09 3.98261e-08)
(0.000780902 1.75827e-08 4.45623e-08)
(0.00104169 4.51255e-08 1.73482e-07)
(0.000778842 -7.33007e-08 4.68857e-08)
(0.000779443 -7.40824e-08 4.539e-08)
(0.00103972 -6.01462e-08 1.79309e-07)
(0.000777424 -1.58654e-07 3.43599e-08)
(0.000778038 -1.21492e-07 5.5761e-08)
(0.0010379 -1.54919e-07 1.79201e-07)
(0.000775804 -1.52029e-07 2.54135e-08)
(0.000776552 -2.41199e-07 2.80554e-08)
(0.00103581 -3.11848e-07 1.90866e-07)
(0.000774178 -3.87085e-08 4.88895e-08)
(0.00077509 3.91213e-07 1.38357e-08)
(0.00103359 -1.69537e-07 1.5857e-07)
(0.000772715 1.49304e-07 8.31745e-08)
(0.0007737 8.84377e-08 5.33314e-08)
(0.00103155 1.01726e-08 1.76206e-07)
(0.000772049 2.78348e-07 1.24996e-07)
(0.000772406 6.58351e-07 1.38838e-07)
(0.00103025 3.7927e-07 4.5431e-08)
(0.000770366 3.03506e-07 7.15525e-08)
(0.000771045 2.9778e-07 6.96185e-08)
(0.00102864 3.92092e-07 7.76555e-08)
(0.000768708 1.88335e-07 1.21291e-08)
(0.000769484 1.47791e-07 2.32664e-08)
(0.00102641 4.6176e-07 9.57778e-08)
(0.000767474 3.77996e-08 3.39855e-08)
(0.000768065 9.87285e-08 4.42002e-08)
(0.00102443 7.3873e-08 1.48343e-07)
(0.000766199 2.82202e-08 5.77925e-08)
(0.000766881 -1.82849e-08 4.58225e-08)
(0.00102272 4.61594e-08 1.59566e-07)
(0.000764746 1.61219e-07 6.13663e-08)
(0.000765606 9.65484e-07 4.16973e-08)
(0.00102101 1.44236e-08 1.01255e-07)
(0.000762716 2.29735e-07 4.81449e-08)
(0.000763768 1.16525e-06 4.70437e-08)
(0.00101859 3.61885e-07 1.71412e-07)
(0.00076149 2.16147e-07 1.00503e-07)
(0.000762073 -2.23643e-08 4.77619e-08)
(0.00101639 2.22279e-07 1.69609e-07)
(0.000760771 -1.38985e-06 1.02224e-07)
(0.00101485 3.55427e-07 1.91078e-07)
(0.006824 -0.00182583 -0.000295511)
(0.010859 -0.00433438 -0.000676642)
(0.00817256 -0.00547322 -0.000397716)
(0.00438809 0.00525374 -0.000153652)
(0.00614528 0.00331056 -0.000250676)
(-0.00166543 0.00938179 -0.000410478)
(0.000483989 0.00963115 -0.000412048)
(-0.00362009 -0.00264963 0.000453099)
(0.00189013 -0.00563692 0.00133677)
(0.0051378 0.0136125 0.00146082)
(0.0129659 -0.000786596 0.0011944)
(-0.0118357 0.00598511 -0.026692)
(0.00171426 -0.00669501 0.00110206)
(-0.0152953 -0.00797248 0.0756224)
(-0.0337212 -0.00152447 -0.0393311)
(-0.0112487 0.00996828 -0.000435153)
(-0.0160717 0.00180438 0.000629147)
(-0.0135486 0.00122528 -0.00130843)
(-0.016527 0.0058906 -0.00139562)
(-0.030721 0.00772216 -0.00314766)
(-0.0301626 0.00233551 -0.013423)
(-0.0344406 0.00790917 0.0153245)
(-0.0134221 0.00755547 0.00156475)
(0.00566155 -0.0100203 0.00268701)
(-0.00334674 -0.00906325 7.69996e-05)
(-0.00204477 -0.00796596 -0.00102907)
(-0.00103047 -0.0112232 6.30158e-05)
(-0.000954367 0.00199245 7.20631e-05)
(-0.00328538 0.00107043 4.89921e-05)
(0.00575502 -0.0045944 3.95462e-05)
(0.000347023 -0.00134522 0.000111992)
(0.00443514 -0.00119257 0.000311055)
(-0.000128102 -0.00220478 0.000607443)
(0.00105806 -0.000592509 -9.58233e-06)
(0.00141425 -0.000238668 -8.97023e-05)
(0.00105643 -0.000226398 4.66803e-06)
(0.000876609 -0.00027114 -2.61707e-05)
(0.00135841 -0.000137048 3.73336e-06)
(0.000615713 -0.000135902 2.43234e-05)
(0.000387955 -6.77502e-05 1.25439e-05)
(0.000405979 -8.7166e-05 1.06942e-05)
(0.000640661 -0.000152483 3.00396e-05)
(0.000275863 -8.04631e-05 6.51736e-06)
(0.000864385 -2.91169e-05 -1.32875e-06)
(0.000916579 -8.23287e-06 -2.25694e-06)
(0.00122228 -5.11889e-05 -1.53765e-06)
(0.000647186 -5.84311e-05 -4.74019e-06)
(0.000662334 -3.76695e-05 -5.44208e-06)
(0.0011078 -0.000112457 -5.30716e-06)
(0.00113761 -6.25923e-05 -6.31245e-06)
(0.000843847 -1.30656e-05 -1.3807e-07)
(0.000846946 -2.48656e-06 -3.55995e-07)
(0.00112989 -2.1702e-05 1.03604e-07)
(0.000831652 -6.47869e-06 2.55929e-07)
(0.000838839 -1.0818e-06 1.00396e-07)
(0.00111938 -1.07176e-05 1.95016e-07)
(0.000824208 -3.12257e-06 2.61084e-07)
(0.000827482 2.3892e-07 2.14191e-07)
(0.00110398 -5.28396e-06 1.78727e-07)
(0.000820115 -1.55233e-06 7.78045e-08)
(0.000821973 -1.32722e-06 9.32502e-08)
(0.00109672 -2.36574e-06 2.11694e-07)
(0.000816845 -1.02957e-06 4.19555e-08)
(0.00081786 -3.98167e-08 4.6568e-08)
(0.00109183 -1.39624e-06 1.82288e-07)
(0.000813647 -7.70901e-07 2.98889e-08)
(0.000814876 1.57151e-06 5.51118e-08)
(0.00108741 -1.09843e-06 1.4244e-07)
(0.00081111 -4.84902e-07 3.70332e-08)
(0.00081245 1.36499e-06 5.09067e-08)
(0.00108351 -7.69806e-07 1.32963e-07)
(0.000809334 -3.04703e-07 4.93257e-08)
(0.000810358 -1.45725e-07 4.97437e-08)
(0.00108067 -4.01856e-07 1.79766e-07)
(0.000807471 -1.71148e-07 5.62327e-08)
(0.000808446 1.84254e-07 5.65966e-08)
(0.00107827 -3.41956e-07 1.80231e-07)
(0.000805674 -2.84205e-08 1.98414e-09)