/*--------------------------------*- C++ -*----------------------------------*\
| =========                 |                                                 |
| \\      /  F ield         | OpenFOAM: The Open Source CFD Toolbox           |
|  \\    /   O peration     | Version:  5.0                                   |
|   \\  /    A nd           | Web:      www.OpenFOAM.org                      |
|    \\/     M anipulation  |                                                 |
\*---------------------------------------------------------------------------*/
FoamFile
{
    version     2.0;
    format      ascii;
    class       surfaceVectorField;
    location    "3.1";
    object      Uf_0;
}
// * * * * * * * * * * * * * * * * * * * * * * * * * * * * * * * * * * * * * //

dimensions      [0 1 -1 0 0 0 0];

internalField   nonuniform List<vector> 
25543
(
(0.00014741 -0.00537197 -2.55917e-05)
(0.000750162 -0.00296302 -7.8307e-05)
(0.00344238 -0.001449 -2.05814e-05)
(0.000242923 -0.000741165 -5.0915e-05)
(0.00138748 -0.00221693 -0.000132382)
(0.00175227 -0.00226975 -0.000185177)
(0.0029784 -0.0026651 0.00027269)
(-0.000398172 0.00208212 -8.10422e-05)
(0.002462 0.00243859 -0.000111318)
(0.00149263 -0.00446313 -0.000239673)
(0.00303512 -0.002756 0.000240646)
(0.00303621 -0.00501518 7.99451e-05)
(0.00310853 -0.00810904 0.00013291)
(0.00288939 -0.00779304 4.19889e-05)
(0.0036539 -0.00583821 0.000672382)
(-0.00356788 0.00785103 0.000181531)
(0.00582994 0.00368042 -0.000445103)
(0.010574 -0.00109486 -0.00130256)
(0.00533236 -0.00722661 0.000292427)
(0.00131804 0.00034107 -0.000546336)
(0.00532784 -0.0124777 0.000303833)
(0.00336932 -0.00156953 -0.000257213)
(-0.00945804 -0.00948853 -0.000372616)
(0.00189561 -9.41984e-05 -0.000360372)
(0.00348349 0.00219829 -0.000226451)
(-0.00108769 0.00232403 -0.00114734)
(0.000557418 -4.80806e-05 2.49339e-05)
(0.000347453 -8.19291e-06 9.66549e-06)
(0.000532749 -2.37612e-05 2.51215e-05)
(0.000258471 -1.70639e-05 5.78832e-06)
(0.000790256 -6.22462e-05 -8.85951e-07)
(0.000824231 -8.8712e-05 -2.16107e-06)
(0.00107716 -9.52071e-05 -1.31755e-06)
(0.000574107 -4.28871e-05 -4.16297e-06)
(0.000549279 -5.27955e-05 -4.28585e-06)
(0.000973263 -5.28861e-05 -4.52612e-06)
(0.000912568 -8.16233e-05 -4.38369e-06)
(0.000793593 -4.02824e-05 6.9794e-08)
(0.000805304 -5.10074e-05 -5.26554e-08)
(0.00104986 -6.11764e-05 1.73592e-07)
(0.000801526 -2.61109e-05 1.38513e-07)
(0.000808973 -3.73197e-05 8.72624e-08)
(0.00106446 -4.00288e-05 1.85078e-07)
(0.000806319 -1.66648e-05 9.09413e-08)
(0.000811685 -2.38431e-05 8.13298e-08)
(0.00107265 -2.55618e-05 1.91145e-07)
(0.000809261 -1.05893e-05 3.7445e-08)
(0.000812718 -1.55173e-05 5.77274e-08)
(0.0010777 -1.63109e-05 1.86337e-07)
(0.000810644 -6.68399e-06 4.06418e-08)
(0.000813237 -9.92818e-06 2.91669e-08)
(0.00108079 -1.03254e-05 1.86937e-07)
(0.000811161 -4.20948e-06 6.42106e-08)
(0.000812991 -6.25158e-06 6.29427e-08)
(0.00108198 -6.46566e-06 1.77364e-07)
(0.000810795 -2.63915e-06 1.36763e-07)
(0.000812316 -3.89683e-06 5.28765e-08)
(0.00108195 -4.08253e-06 1.80708e-07)
(0.000810224 -1.66957e-06 1.37688e-07)
(0.000811333 -2.91586e-06 1.31625e-07)
(0.00108132 -2.5376e-06 1.8716e-07)
(0.000809172 -1.10473e-06 6.53036e-08)
(0.000810124 -1.63088e-06 5.22876e-08)
(0.00108019 -1.65008e-06 1.80287e-07)
(0.000808144 -8.38467e-07 7.4633e-08)
(0.000808844 -1.285e-06 6.73738e-08)
(0.00107887 -1.1024e-06 1.87164e-07)
(0.000806142 -6.77391e-07 6.73477e-08)
(0.000807353 -9.06846e-08 9.72595e-08)
(0.00107678 -9.66071e-07 2.05186e-07)
(0.000805104 -4.86411e-07 6.29731e-08)
(0.000805883 -5.2955e-07 4.48051e-08)
(0.00107474 -7.10206e-07 2.06968e-07)
(0.000803784 -2.89605e-07 6.46198e-08)
(0.000804571 -2.35971e-07 5.77548e-08)
(0.00107326 -4.93831e-07 1.31087e-07)
(0.000802322 -1.57489e-07 5.15707e-08)
(0.000803065 -3.6482e-07 6.14124e-08)
(0.00107134 -1.74232e-07 1.79301e-07)
(0.000800682 -1.03358e-07 3.6483e-08)
(0.000801473 2.4523e-08 3.84885e-08)
(0.00106924 -1.34707e-07 1.7773e-07)
(0.000799025 -7.7035e-09 2.01085e-08)
(0.000799937 6.6471e-07 4.28594e-08)
(0.00106707 -5.25123e-08 1.44841e-07)
(0.000797371 9.47481e-08 5.83941e-08)
(0.000798392 1.39026e-07 -6.54714e-09)
(0.0010649 1.09535e-07 1.75912e-07)
(0.000796474 7.77934e-08 8.18776e-08)
(0.000796904 -2.09044e-06 9.37705e-08)
(0.00106317 2.34628e-07 2.6374e-07)
(0.00079486 2.44309e-08 5.03631e-08)
(0.000795464 1.79634e-07 4.34062e-08)
(0.00106142 5.88911e-08 1.79574e-07)
(0.000793536 8.84316e-08 5.98337e-08)
(0.000794096 -1.61431e-07 4.7585e-08)
(0.00105967 4.69178e-08 1.78768e-07)
(0.00079114 -3.36396e-08 1.45995e-07)
(0.000792254 5.29129e-07 6.09966e-08)
(0.00105707 1.90426e-07 2.66182e-07)
(0.000790105 -4.59137e-07 7.13032e-08)
(0.000790364 -4.83407e-07 4.20697e-08)
(0.00105468 -3.14611e-07 1.57586e-07)
(0.000788254 -6.36156e-07 -4.0572e-08)
(0.000789117 2.9581e-06 4.21116e-08)
(0.00105293 -9.60397e-07 -2.82485e-08)
(0.000786521 -4.80929e-07 4.17445e-08)
(0.000787737 1.35515e-06 2.69438e-08)
(0.00105035 -7.7353e-07 7.89685e-08)
(0.000786037 -3.51289e-07 6.55062e-08)
(0.000786402 -7.20283e-07 1.35817e-07)
(0.00104894 -5.3611e-07 1.73437e-07)
(0.000784326 -1.32541e-07 3.9528e-08)
(0.000785248 -8.13148e-08 1.24762e-07)
(0.00104765 -3.83005e-07 1.91039e-07)
(0.000782623 1.53187e-08 3.96291e-08)
(0.00078359 -1.04723e-08 4.15518e-08)
(0.0010453 7.44956e-08 1.62772e-07)
(0.000781181 6.45688e-09 4.05901e-08)
(0.000781902 1.10481e-07 4.30993e-08)
(0.00104319 1.47451e-08 1.68252e-07)
(0.000779589 4.41182e-08 3.2044e-08)
(0.000780511 1.04631e-07 4.15827e-08)
(0.00104115 5.41618e-08 1.80672e-07)
(0.000778171 1.98037e-07 -2.67711e-08)
(0.000779025 9.10403e-08 4.11394e-08)
(0.00103902 1.1642e-07 1.64528e-07)
(0.000776533 3.94106e-07 4.41983e-09)
(0.000777523 2.75092e-07 -2.35862e-08)
(0.00103709 4.91712e-07 1.88592e-07)
(0.000775786 2.57121e-07 5.70287e-08)
(0.00077608 -1.23621e-06 4.41708e-08)
(0.00103564 6.07537e-07 1.96777e-07)
(0.000774087 6.35788e-09 4.95269e-08)
(0.000774684 1.52509e-07 3.97219e-08)
(0.00103392 9.75611e-08 1.65863e-07)
(0.0007723 -2.88221e-07 1.00321e-07)
(0.000773062 9.00084e-08 7.98209e-08)
(0.00103148 -3.9753e-08 1.73009e-07)
(0.000771633 -4.61244e-07 1.60577e-07)
(0.000771822 -8.83501e-09 8.72596e-08)
(0.00103006 -6.62661e-07 2.54051e-07)
(0.000769974 -3.04143e-07 1.22821e-07)
(0.000770666 -3.34886e-07 9.07406e-08)
(0.00102836 -5.01956e-07 1.69055e-07)
(0.000768311 -2.10424e-07 5.3525e-08)
(0.000769109 7.14433e-08 5.38662e-08)
(0.00102611 -2.93543e-07 1.63617e-07)
(0.000766938 -2.29203e-07 5.33072e-08)
(0.000767618 -2.33405e-08 5.62727e-08)
(0.00102413 -2.8145e-07 1.73294e-07)
(0.000765528 -3.70853e-07 1.11575e-07)
(0.000766222 -1.42247e-07 5.75152e-08)
(0.00102221 -3.15766e-07 1.76419e-07)
(0.000764148 -4.02261e-07 7.57453e-08)
(0.000764886 -3.79541e-07 1.1186e-07)
(0.00102055 -6.17039e-07 1.68422e-07)
(0.00076235 -2.69818e-07 2.57584e-08)
(0.000763252 1.25029e-06 3.10767e-08)
(0.00101831 -4.22781e-07 8.2825e-08)
(0.000761868 -4.74947e-07 5.14677e-08)
(0.00101597 -3.10914e-07 2.57778e-07)
(0.00131843 0.000588464 -0.000185079)
(0.00722743 0.000805044 -0.000498337)
(0.00284257 -0.00112295 -0.000291623)
(0.000955405 0.00151889 -0.000162526)
(0.00612775 0.00150655 0.000347102)
(0.00171873 0.00134804 -0.000218537)
(0.000296605 0.00311684 7.24635e-05)
(6.37055e-05 0.0030092 -0.000445373)
(-2.18287e-05 0.000514391 -7.05134e-06)
(0.000378006 0.0069173 1.07004e-05)
(0.0039193 -0.00216409 -9.59479e-05)
(-0.000101317 0.00289599 -0.000150448)
(-0.00487551 0.0105206 0.000155975)
(0.00913656 0.00749973 4.43257e-05)
(-0.00440725 0.005322 -0.00033188)
(0.00201811 -0.00422678 -0.000137337)
(0.00336146 -0.00245477 6.5827e-05)
(0.00303348 -0.00500004 0.000182352)
(-0.000403601 -0.00712894 0.00023937)
(-0.00658 0.00270735 0.000300689)
(-0.00362922 0.0099288 -1.14194e-05)
(0.0049088 0.00827141 -0.000147158)
(-0.0019556 0.00635012 -0.00036629)
(-0.00461507 0.00598839 -3.76316e-05)
(-0.0028398 0.00628751 -0.000276701)
(-0.00516169 0.0062672 -0.000240165)
(0.00248912 -0.00594256 -0.000170999)
(0.00216805 -0.00919704 -0.000327226)
(0.00225804 -0.00345228 -4.28102e-05)
(0.000654456 -0.000897145 -8.42333e-05)
(0.00560678 -0.00673946 -0.000347197)
(0.001062 -9.89101e-05 2.2602e-05)
(0.000414744 -7.48498e-05 3.2116e-05)
(0.000398261 -0.000113672 3.76863e-05)
(0.000522022 -8.93947e-05 6.90082e-05)
(0.000274725 -5.73127e-05 1.80224e-05)
(0.000829115 -7.2323e-05 -1.32846e-06)
(0.000588402 -7.20777e-05 -1.69284e-06)
(0.0011165 -0.000130462 -1.70071e-06)
(0.000575376 -7.20666e-05 -4.83532e-06)
(0.000602357 -9.33197e-05 -3.723e-06)
(0.000963266 -0.00011832 -4.91879e-06)
(0.00104064 -0.000165441 -1.12636e-06)
(0.000562127 -8.28026e-05 -4.64423e-06)
(0.000994296 -0.000127356 -1.11479e-06)
(0.000933495 -0.000137611 -5.60065e-06)
(0.000820045 -4.1286e-05 -3.52328e-08)
(0.000858412 -4.1028e-05 -8.80522e-07)
(0.00109498 -5.58058e-05 1.36493e-07)
(0.00081957 -3.15788e-05 3.00817e-08)
(0.000821336 -3.85862e-05 -2.29988e-07)
(0.00109158 -4.98451e-05 1.70887e-07)
(0.000818015 -2.02975e-05 4.81236e-08)
(0.000825885 -2.3872e-05 1.17277e-07)
(0.0010915 -3.14003e-05 1.78873e-07)
(0.000816835 -1.32854e-05 4.94586e-08)
(0.000821546 -1.6016e-05 4.3202e-08)
(0.00108977 -2.0826e-05 1.79305e-07)
(0.000815542 -8.51881e-06 5.14568e-08)
(0.000819237 -1.02866e-05 5.53793e-08)
(0.0010885 -1.33695e-05 1.79752e-07)
(0.000814231 -5.43708e-06 5.16119e-08)
(0.00081687 -6.58817e-06 5.17963e-08)
(0.00108687 -8.59118e-06 1.80216e-07)
(0.00081289 -3.44307e-06 4.77129e-08)
(0.000814826 -4.19324e-06 5.22644e-08)
(0.00108519 -5.46308e-06 1.80467e-07)
(0.000811276 -2.20693e-06 4.62503e-08)
(0.000812889 -2.72214e-06 4.67539e-08)
(0.00108329 -3.46401e-06 1.70705e-07)
(0.000809715 -1.49165e-06 5.4353e-08)
(0.000811025 -1.58953e-06 5.35262e-08)
(0.00108127 -2.27842e-06 1.76974e-07)
(0.000808189 -1.04587e-06 8.99907e-08)
(0.000809406 -1.80401e-06 6.81157e-08)
(0.00107921 -1.6221e-06 2.12599e-07)
(0.00080697 -6.35238e-07 7.47338e-08)
(0.00080787 -1.45603e-06 7.94171e-08)
(0.00107731 -1.10719e-06 2.44906e-07)
(0.000805406 -2.71584e-07 3.95826e-08)
(0.00080634 -5.44579e-07 3.45276e-08)
(0.00107545 -5.32852e-07 1.81529e-07)
(0.000803856 -1.88867e-07 5.45462e-08)
(0.000804676 -3.91796e-07 1.02305e-07)
(0.00107346 -1.60115e-07 1.90264e-07)
(0.00080223 -2.13317e-07 4.83375e-08)
(0.000803035 -2.26758e-07 5.38841e-08)
(0.00107136 -3.14723e-07 1.76504e-07)
(0.000800728 -1.81438e-07 4.48635e-08)
(0.000801514 -4.18435e-09 8.33161e-08)
(0.00106919 -2.0557e-07 1.77567e-07)
(0.000799303 -1.10491e-07 1.62195e-08)
(0.000800026 5.17957e-08 -2.91167e-08)
(0.00106731 -2.10458e-07 2.11603e-07)
(0.000797818 -1.28012e-08 2.87974e-08)
(0.000798514 -1.12826e-07 1.76265e-08)
(0.0010654 -1.93397e-08 1.91896e-07)
(0.00079599 -9.25447e-08 5.5315e-08)
(0.000796804 -4.49912e-07 5.46409e-08)
(0.0010631 1.27348e-08 8.94245e-08)
(0.00079464 -2.64274e-07 4.06267e-08)
(0.00079525 -3.31021e-08 4.93434e-08)
(0.00106097 -2.42893e-07 1.77474e-07)
(0.000793068 -6.10564e-07 4.87438e-08)
(0.000793665 -6.75459e-08 5.64181e-08)
(0.00105913 -4.34434e-07 1.75547e-07)
(0.000791227 -7.27801e-07 -4.29228e-08)
(0.00079211 1.31869e-06 6.45821e-09)
(0.00105684 -1.19936e-06 1.50371e-07)
(0.000789323 -6.17244e-07 1.28781e-08)
(0.000790505 3.30928e-07 -4.92049e-08)
(0.00105418 -7.7012e-07 1.54099e-07)
(0.000788684 -5.18347e-07 1.09632e-07)
(0.000789243 -5.73555e-09 1.20167e-07)
(0.00105262 -8.69423e-07 3.09641e-07)
(0.000787539 -2.27025e-08 1.20982e-07)
(0.000788357 -9.8998e-08 6.42401e-08)
(0.00105151 -4.79737e-07 2.47936e-07)
(0.000785632 2.81633e-07 1.95076e-07)
(0.000786782 3.35044e-07 2.33702e-07)
(0.00104937 4.63914e-07 1.37585e-07)
(0.000784717 9.84856e-08 1.26811e-07)
(0.000785017 6.19309e-07 1.60283e-07)
(0.00104761 3.68975e-07 7.47665e-08)
(0.000782635 1.30361e-08 4.50215e-08)
(0.000783482 7.33779e-07 6.76806e-08)
(0.00104558 -2.56032e-08 1.75544e-07)
(0.00078129 8.30081e-08 4.40924e-08)
(0.000781989 -8.36427e-08 4.70186e-08)
(0.00104318 1.07986e-07 1.76835e-07)
(0.000779967 1.30898e-07 5.06783e-08)
(0.00078057 -1.39721e-07 4.89338e-08)
(0.00104147 1.3945e-07 1.78789e-07)
(0.000778391 2.36423e-07 4.43444e-08)
(0.000779155 9.27828e-08 6.07149e-08)
(0.00103963 2.55014e-07 1.83938e-07)
(0.000777008 3.58157e-07 1.61438e-08)
(0.000777673 3.26335e-07 3.84572e-08)
(0.00103758 4.68059e-07 1.6319e-07)
(0.000774969 2.85334e-07 2.68654e-08)
(0.000775988 -2.28652e-07 5.75022e-08)
(0.0010352 5.67061e-07 1.53593e-07)
(0.000773832 5.29067e-08 7.00036e-08)
(0.000774392 -1.74152e-07 3.80382e-08)
(0.00103316 2.17061e-07 1.68694e-07)
(0.000772225 -9.75959e-08 6.67577e-08)
(0.000772874 -2.17586e-07 -2.26756e-08)
(0.0010313 -8.38567e-08 2.09798e-07)
(0.000771095 -2.2869e-07 1.74222e-08)
(0.000771659 -1.07031e-07 1.20596e-07)
(0.00102943 -1.98363e-07 1.51865e-07)
(0.000769814 -2.25807e-07 2.17968e-08)
(0.000770671 -1.52589e-07 4.83471e-08)
(0.00102799 -4.5694e-07 1.45495e-07)
(0.000768378 -1.41467e-07 5.66131e-08)
(0.000769216 -7.46813e-08 7.45528e-08)
(0.00102612 -1.90692e-07 1.83452e-07)
(0.000766869 -6.32363e-08 6.04802e-08)
(0.000767716 3.027e-08 8.50149e-08)
(0.00102414 -2.18151e-07 1.75775e-07)
(0.000765587 -6.32242e-08 5.77839e-08)
(0.000766222 3.33332e-07 6.71743e-08)
(0.00102234 5.23376e-08 1.2466e-07)
(0.000764103 -2.4983e-07 6.72159e-08)
(0.000764653 -3.46692e-07 5.66211e-08)
(0.00102044 -1.84292e-07 1.75386e-07)
(0.000762537 -2.92154e-07 5.67798e-08)
(0.000763202 3.9216e-07 7.09408e-08)
(0.00101832 -4.5353e-07 2.48401e-07)
(0.000762232 1.02322e-07 5.48857e-08)
(0.00101694 -3.13188e-07 8.53087e-08)
(0.0143831 0.00116291 3.35632e-05)
(0.00711071 0.0022075 -0.000430214)
(0.00237845 0.00174528 -0.00122474)
(0.00379097 0.00396245 6.45181e-05)
(0.00952558 -0.000622562 0.000420037)
(0.00704969 -9.89521e-05 0.00102735)
(0.00318208 -0.000571424 -0.0006139)
(0.00656474 0.0111984 -2.10118e-05)
(0.00475683 0.00215943 0.00693389)
(-0.00130721 0.0128578 -0.00033601)
(0.00712396 0.0101271 -0.000114711)
(0.00923362 0.00833376 0.00195771)
(0.0051527 0.00279668 0.00650996)
(0.00535867 0.00392593 -0.00589818)
(0.00452775 0.00481621 -0.00938238)
(0.0131144 0.00415808 0.000199465)
(-0.0119194 -0.00921646 -0.000648611)
(-0.00681204 -0.00572444 0.00104397)
(0.00692957 0.0036156 0.00046994)
(0.00170583 -0.000311008 0.000370396)
(-1.87458e-05 0.017967 0.00161886)
(0.00330539 -0.00632203 -0.00105627)
(-0.00716496 0.00824748 -0.000218986)
(0.00863458 -0.00749255 -0.0042457)
(-0.00760423 -0.00763697 -0.00264143)
(-0.00900418 -0.00438084 -0.00107313)
(-0.00821395 -0.00586511 0.00231352)
(0.00261896 0.013939 0.000314646)
(0.0060404 0.00280534 0.000439277)
(0.00603358 0.0107545 0.000734633)
(0.00543156 0.00760722 0.000808192)
(-0.00274024 0.0030159 -0.000202099)
(-0.00146798 0.00380511 -2.01371e-05)
(-0.000430935 0.00426037 -9.70613e-05)
(-0.00167275 0.00707033 0.00027098)
(-0.00235818 0.00600318 -0.000360404)
(0.000243168 -0.000310584 3.50479e-05)
(0.00101471 -3.78997e-05 -4.60496e-06)
(0.00122725 -0.000180312 5.33169e-05)
(0.00119933 -0.000211412 -6.94039e-05)
(0.00118047 -0.000153005 1.59606e-05)
(0.000319237 -5.64729e-05 -2.84932e-06)
(0.000479137 -6.7651e-05 -3.60436e-06)
(0.000479371 -7.94707e-05 -5.62098e-07)
(0.000767474 -0.000114892 -1.62365e-06)
(0.000326632 -4.85254e-05 -2.26336e-06)
(0.000573312 -0.000106163 -3.68468e-06)
(0.000595744 -8.70087e-05 -8.66798e-07)
(0.000835634 -4.28118e-05 -1.07549e-06)
(0.000914191 -5.81092e-05 -1.67135e-06)
(0.00118902 -6.26845e-05 -1.03574e-06)
(0.000598202 -5.8571e-05 -4.34646e-06)
(0.000626351 -5.1095e-05 -4.99047e-06)
(0.000975432 -0.000111995 -5.30308e-06)
(0.00103614 -9.60156e-05 -6.27068e-06)
(0.00083246 -3.04842e-05 -1.42906e-07)
(0.000836896 -3.50033e-05 -4.26814e-07)
(0.00109558 -4.98497e-05 6.85584e-08)
(0.000828119 -1.90363e-05 1.1238e-07)
(0.00084031 -2.08799e-05 1.68333e-07)
(0.00110918 -3.04765e-05 2.11159e-07)
(0.00082392 -1.22046e-05 4.91188e-08)
(0.00083016 -1.27459e-05 3.36196e-08)
(0.0011004 -1.97404e-05 1.79856e-07)
(0.000820339 -7.7177e-06 5.57199e-08)
(0.000824893 -7.83083e-06 5.63656e-08)
(0.00109619 -1.24817e-05 1.83238e-07)
(0.000817347 -4.8887e-06 5.24486e-08)
(0.000820436 -4.8342e-06 5.13549e-08)
(0.00109193 -7.91344e-06 1.81336e-07)
(0.000814811 -3.11821e-06 5.13071e-08)
(0.000817058 -3.00115e-06 5.16111e-08)
(0.00108841 -5.01637e-06 1.81055e-07)
(0.000812553 -1.99497e-06 5.40275e-08)
(0.000814305 -1.8735e-06 5.11816e-08)
(0.00108533 -3.23255e-06 1.81129e-07)
(0.000810645 -1.24106e-06 6.72841e-08)
(0.000811976 -1.21941e-06 5.30752e-08)
(0.00108252 -2.05849e-06 1.84156e-07)
(0.000809034 -8.71239e-07 5.75384e-08)
(0.000809874 -1.82431e-06 5.03028e-08)
(0.00108035 -1.276e-06 1.85534e-07)
(0.000807261 -6.57761e-07 3.92253e-08)
(0.00080814 2.73806e-07 4.73321e-08)
(0.00107815 -1.11516e-06 7.88088e-08)
(0.000805701 -5.07589e-07 9.72281e-08)
(0.000806531 -5.01131e-07 3.90752e-08)
(0.00107592 -6.93432e-07 1.77157e-07)
(0.000803723 -4.06742e-07 1.01658e-07)
(0.000804804 2.02174e-07 1.16104e-07)
(0.00107353 -6.66428e-07 1.75276e-07)
(0.000802354 -2.89495e-07 8.88533e-08)
(0.000803183 -4.35366e-07 5.13449e-08)
(0.00107129 -4.08945e-07 1.78335e-07)
(0.000800766 -2.14754e-07 9.37167e-09)
(0.000801608 3.60579e-07 8.24921e-08)
(0.00106938 -3.50373e-07 1.57669e-07)
(0.000799276 -1.90971e-07 -2.77246e-08)
(0.000800056 1.27194e-07 -2.86835e-08)
(0.00106731 -1.94981e-07 1.69204e-07)
(0.000797548 -1.84045e-07 4.34583e-08)
(0.000798523 4.86179e-07 3.76861e-08)
(0.00106518 -3.02251e-07 1.53646e-07)
(0.000795942 -1.45717e-07 4.8671e-08)
(0.000796853 -2.72319e-07 6.1619e-08)
(0.00106289 -1.75472e-07 1.7245e-07)
(0.000794417 -1.51202e-07 6.51326e-08)
(0.000795244 -6.42426e-08 6.21572e-08)
(0.00106087 -1.72844e-07 1.80086e-07)
(0.000792583 -1.64368e-07 1.41484e-08)
(0.000793649 -1.66884e-07 7.3629e-08)
(0.00105848 -1.73276e-07 2.12207e-07)
(0.000791556 5.84834e-08 1.93684e-10)
(0.000792389 -6.44026e-07 -1.29035e-08)
(0.00105665 -2.08453e-07 2.72497e-07)
(0.000790028 5.38706e-07 5.80309e-08)
(0.000791104 -8.90877e-07 3.51086e-08)
(0.00105511 4.23784e-07 2.64732e-07)
(0.00078911 7.44014e-07 7.47926e-08)
(0.000789496 -1.17721e-06 4.74477e-08)
(0.0010533 1.04453e-06 2.07579e-07)
(0.0007878 4.94769e-07 1.76907e-07)
(0.000788042 -1.91876e-06 2.53722e-08)
(0.00105202 9.31729e-07 2.88484e-07)
(0.000786001 3.11337e-07 1.98932e-07)
(0.000786551 3.98262e-07 1.64852e-07)
(0.00105 4.02387e-07 1.98547e-07)
(0.000783829 1.53609e-07 1.01181e-07)
(0.000784819 2.46214e-07 8.25885e-08)
(0.00104704 4.46456e-07 2.62798e-07)
(0.000782782 3.86951e-08 6.96841e-08)
(0.000783338 2.85558e-07 6.62139e-08)
(0.00104497 -3.08007e-08 1.68283e-07)
(0.000781284 9.93443e-08 5.18594e-08)
(0.000782065 -7.92345e-08 4.62291e-08)
(0.0010434 1.26461e-07 1.76361e-07)
(0.000779761 8.77356e-08 5.89668e-08)
(0.000780556 1.62967e-08 4.3665e-08)
(0.00104133 1.21485e-07 1.68032e-07)
(0.000778394 1.00981e-07 5.48346e-08)
(0.000779172 1.3086e-07 5.00551e-08)
(0.00103943 9.84268e-08 1.62617e-07)
(0.000776793 4.66418e-08 7.98097e-08)
(0.000777605 5.56657e-07 2.00215e-08)
(0.00103748 1.21985e-07 1.69842e-07)
(0.000775262 1.86879e-08 6.8681e-08)
(0.000775953 9.0475e-08 4.14e-08)
(0.00103532 -5.542e-08 1.57534e-07)
(0.000773574 6.99019e-08 -5.46223e-08)
(0.000774456 1.66846e-07 3.49462e-08)
(0.00103311 5.57828e-08 1.70154e-07)
(0.000771997 2.01844e-07 3.11187e-08)
(0.000773038 3.18176e-07 -4.35056e-08)
(0.00103096 1.01452e-07 1.46156e-07)
(0.00077142 3.03265e-07 1.51543e-07)
(0.000771785 8.60041e-07 1.46514e-07)
(0.0010296 4.6525e-07 2.48947e-08)
(0.000770154 2.57606e-07 1.01095e-07)
(0.000770612 4.46155e-07 4.38803e-08)
(0.00102837 4.25169e-07 1.13894e-07)
(0.000768515 2.40104e-07 1.02951e-07)
(0.000769192 -4.20243e-08 6.7369e-09)
(0.00102641 3.70816e-07 1.8886e-07)
(0.000767041 2.9174e-07 9.17143e-08)
(0.000767779 -5.28782e-08 7.64663e-08)
(0.00102444 3.69513e-07 1.82615e-07)
(0.000765287 2.51901e-07 6.60146e-08)
(0.000766171 2.14996e-07 7.49788e-08)
(0.00102226 4.66496e-07 2.10923e-07)
(0.00076374 1.27882e-07 6.03416e-08)
(0.000764497 -4.05088e-08 4.12914e-08)
(0.00101992 2.48861e-07 1.61163e-07)
(0.000762703 8.37103e-08 6.90517e-08)
(0.000763145 -2.21199e-07 4.98653e-08)
(0.00101815 1.31513e-07 1.82073e-07)
(0.000762128 1.40078e-07 6.54034e-08)
(0.00101693 1.03301e-07 1.58597e-07)
(0.00361396 0.000544077 -4.40235e-05)
(0.00483022 -0.00200774 -0.000167691)
(0.000409561 0.000299578 -8.6679e-05)
(0.00448234 0.00184632 -0.000212894)
(0.00684776 -0.00258633 -0.000506659)
(0.0043001 0.00284883 0.000545454)
(0.0107853 0.00364853 0.000216124)
(0.00483297 0.00343657 -8.93992e-05)
(0.0019043 -0.000412125 0.00139446)
(0.00994359 -0.000489973 0.00260112)
(0.00606247 0.00130032 0.00100226)
(0.0117024 0.00279363 -0.00625432)
(0.0131647 0.00902027 -0.000298792)
(0.00680112 0.00651096 0.000122446)
(-0.00225332 -0.00165891 -0.000316391)
(0.0129549 -0.00329642 -0.000128209)
(0.00300484 0.00300875 -0.00136379)
(0.0160022 -0.00436899 0.000212509)
(0.0098797 0.00481871 8.8826e-05)
(0.0130964 0.00647106 -3.62501e-05)
(0.00989736 0.00786963 0.0003923)
(-0.0179916 -0.00132021 -0.000431438)
(-0.0150977 -0.00501858 -0.00102591)
(-0.0201665 -0.00534705 -0.00077477)
(-0.0177726 0.00272612 -0.000502686)
(0.00590251 0.00104639 0.00117755)
(-0.0156488 -0.0128143 0.00112943)
(0.0117164 -0.0223236 0.0022042)
(0.0193363 -0.0106061 3.22659e-05)
(0.0073173 -0.0139509 0.00451099)
(0.0073173 -0.0139509 0.00451099)
(0.0073173 -0.0139509 0.00451099)
(0.0073173 -0.0139509 0.00451099)
(-0.000577432 0.00116193 -3.17098e-05)
(-0.00603827 -0.00261801 0.000175609)
(-0.001818 -0.00206651 -2.66225e-05)
(-0.00528972 -0.00163299 5.10487e-05)
(-0.00406416 0.00144743 -0.000167012)
(-0.000359747 -0.00124101 1.27213e-05)
(0.000299188 -0.000823515 7.73497e-06)
(0.000102961 -0.00119369 -1.41576e-05)
(-0.000154254 -0.00198379 -4.05221e-05)
(0.000417086 -0.000823654 5.39666e-05)
(0.000398861 -7.23212e-05 1.24764e-05)
(0.000527726 -4.96627e-05 -2.58846e-06)
(0.000881131 -0.000120582 5.28788e-06)
(0.000418331 -0.000101388 2.26898e-05)
(0.000710296 -0.000126405 3.12315e-05)
(0.000746868 -0.000157177 5.51716e-05)
(0.000517952 -6.23914e-05 5.60287e-07)
(0.000406459 -5.70452e-05 2.15122e-06)
(0.000742564 -0.00011412 9.33271e-06)
(0.000641712 -0.000121787 -1.44205e-06)
(0.000355553 -6.35197e-05 -1.55301e-06)
(0.00087025 -4.14362e-05 -1.02308e-06)
(0.000944463 -3.37278e-05 -1.95551e-06)
(0.00124209 -7.50622e-05 -1.3118e-06)
(0.000645327 -3.67099e-05 -4.53209e-06)
(0.00066588 -3.07576e-05 -4.80449e-06)
(0.00105629 -6.22213e-05 -5.48269e-06)
(0.00112672 -5.13632e-05 -5.65161e-06)
(0.000852746 -2.17914e-05 -1.1577e-07)
(0.00086171 -1.35775e-05 -4.26844e-07)
(0.00113223 -3.79703e-05 7.45501e-08)
(0.000839833 -1.24869e-05 8.96167e-08)
(0.000852049 -7.11254e-06 1.25836e-07)
(0.00112945 -2.18703e-05 2.07762e-07)
(0.000830919 -7.24107e-06 4.0859e-08)
(0.000836782 -3.55694e-06 8.7935e-09)
(0.00111246 -1.2546e-05 1.78508e-07)
(0.000824536 -4.30188e-06 5.20022e-08)
(0.000828605 -1.86914e-06 6.1847e-08)
(0.00110341 -7.49363e-06 1.83293e-07)
(0.000819895 -2.57452e-06 5.05173e-08)
(0.000822619 -1.02014e-06 4.83303e-08)
(0.00109629 -4.45731e-06 1.81593e-07)
(0.000816401 -1.5597e-06 5.14858e-08)
(0.00081834 -6.14061e-07 4.96465e-08)
(0.0010911 -2.69815e-06 1.81445e-07)
(0.000813604 -9.45037e-07 5.02288e-08)
(0.000815082 -3.50818e-07 5.1206e-08)
(0.00108703 -1.63023e-06 1.81182e-07)
(0.000811218 -5.49707e-07 3.60948e-08)
(0.000812475 -1.82073e-07 4.96981e-08)
(0.00108373 -9.92507e-07 1.79299e-07)
(0.000808762 -3.87162e-07 4.00974e-08)
(0.00081008 -1.96452e-07 3.57768e-08)
(0.0010804 -5.21023e-07 1.44687e-07)
(0.000807519 -4.57495e-07 4.71846e-08)
(0.000808055 -2.36511e-07 9.51609e-08)
(0.00107805 -5.36808e-07 1.8791e-07)
(0.000805562 -4.62106e-07 5.79264e-08)
(0.000806527 -1.28633e-07 8.11533e-08)
(0.00107602 -7.03752e-07 1.88698e-07)
(0.000804279 -3.29423e-07 6.58114e-08)
(0.000804972 4.99201e-08 7.37179e-08)
(0.00107382 -5.52079e-07 1.66784e-07)
(0.000802383 -2.63045e-07 4.49737e-08)
(0.000803268 -1.00256e-08 5.02358e-08)
(0.00107176 -3.61299e-07 1.80082e-07)
(0.000800907 -2.07125e-07 4.44723e-08)
(0.000801679 -7.40959e-08 1.03961e-07)
(0.00106946 -3.75161e-07 2.03526e-07)
(0.000799315 -1.44071e-07 3.67062e-08)
(0.000800136 1.09422e-08 5.50063e-08)
(0.00106737 -2.0227e-07 1.9155e-07)
(0.000797885 -6.57522e-08 5.58392e-08)
(0.000798622 2.87146e-08 8.34121e-08)
(0.00106542 -1.98603e-07 2.01457e-07)
(0.000796033 9.16698e-08 7.5105e-08)
(0.000797049 -2.67971e-07 5.65268e-08)
(0.00106327 9.79285e-09 2.06161e-07)
(0.000794586 2.35826e-07 7.065e-08)
(0.000795423 -8.42924e-08 6.38024e-08)
(0.00106098 2.40782e-07 1.72456e-07)
(0.000793233 5.52737e-07 4.66045e-08)
(0.000794042 -4.91477e-07 5.30034e-08)
(0.00105908 4.36e-07 1.8573e-07)
(0.000792164 7.41701e-07 2.19963e-08)
(0.000792621 -2.37443e-06 3.90313e-09)
(0.00105758 1.12982e-06 2.60021e-07)
(0.000790438 7.27629e-07 2.45215e-08)
(0.000791082 1.8736e-07 2.5358e-08)
(0.00105575 9.45485e-07 1.19806e-07)
(0.000788547 7.46394e-07 -1.96582e-09)
(0.000789516 -3.06007e-07 3.24727e-08)
(0.00105324 1.05838e-06 1.49112e-07)
(0.000786684 4.61334e-07 1.32743e-08)
(0.000787683 -5.72836e-07 1.35899e-08)
(0.0010507 9.86894e-07 1.13116e-07)
(0.000785524 8.72589e-08 4.85351e-08)
(0.000786081 -6.97202e-08 5.16261e-08)
(0.00104876 2.89323e-07 1.79345e-07)
(0.000784077 5.73692e-08 4.76267e-08)
(0.000784781 1.70127e-07 5.12342e-08)
(0.00104707 -3.78182e-08 1.77268e-07)
(0.000782793 9.29195e-08 4.27651e-08)
(0.000783382 3.14842e-07 5.52684e-08)
(0.00104518 1.99503e-07 1.55414e-07)
(0.000781266 -9.90272e-09 3.80355e-08)
(0.000781936 -4.61754e-09 4.41736e-08)
(0.00104337 4.77122e-08 1.73954e-07)
(0.000779947 -8.42355e-08 3.47514e-08)
(0.000780463 -1.44386e-07 4.29074e-08)
(0.00104143 -7.74813e-08 1.72375e-07)
(0.000778489 -2.28177e-07 1.52513e-08)
(0.000778993 1.72219e-07 5.82322e-08)
(0.00103963 -1.57037e-07 1.70543e-07)
(0.00077669 -2.80314e-07 -1.83948e-08)
(0.000777541 2.25816e-06 5.30867e-08)
(0.00103739 -4.68374e-07 8.20159e-08)
(0.000775177 -1.31295e-07 7.66711e-09)
(0.00077614 -6.17312e-07 1.73303e-08)
(0.00103512 -3.27707e-07 2.297e-07)
(0.000773909 5.30053e-08 4.6087e-08)
(0.000774687 -1.06899e-07 6.75754e-08)
(0.00103335 -7.64973e-08 1.76713e-07)
(0.000772684 2.87502e-07 7.1831e-08)
(0.000773331 -1.47778e-07 1.88525e-07)
(0.00103181 2.24953e-07 1.86768e-07)
(0.000771036 4.06663e-07 3.88824e-08)
(0.000771932 -2.91178e-07 8.5644e-08)
(0.00102983 5.50672e-07 2.74971e-07)
(0.000769734 2.14894e-07 -5.04666e-08)
(0.000770371 -7.40613e-07 1.85336e-08)
(0.00102787 5.17185e-07 2.46502e-07)
(0.00076839 2.31603e-08 -1.97695e-08)
(0.000768952 1.63711e-07 5.44869e-08)
(0.00102604 6.74276e-08 1.49538e-07)
(0.000767086 -3.1041e-08 5.97312e-08)
(0.000767711 -1.58085e-09 4.31022e-08)
(0.00102426 1.19173e-08 1.57396e-07)
(0.000765146 -4.41404e-12 5.02659e-08)
(0.000766209 -4.57325e-07 2.11993e-08)
(0.00102219 -9.67656e-08 2.68212e-07)
(0.000763975 1.72072e-07 3.08126e-08)
(0.000764712 -3.03661e-07 3.01119e-09)
(0.00102002 9.43974e-08 1.68387e-07)
(0.000762411 2.50384e-07 4.62124e-08)
(0.00076324 5.79438e-08 3.52991e-08)
(0.00101813 3.50404e-07 1.64971e-07)
(0.000761816 3.49181e-07 6.99649e-08)
(0.00101665 3.04996e-07 1.26734e-07)
(0.00637025 -0.00195886 -0.000268027)
(0.00995967 -0.00404113 -0.000683734)
(0.00792719 -0.00472254 -0.000356849)
(0.00346613 0.00458014 -0.000204739)
(0.00702569 0.00240417 -0.000129563)
(-0.00125999 0.0107934 0.000222832)
(0.00154803 0.009407 -0.000789224)
(-0.0147242 -0.000975427 -0.00128472)
(0.0019218 -0.00220425 0.000404789)
(0.00358413 0.0118208 0.000643745)
(0.0101716 -0.00117582 0.000771411)
(-0.0141948 0.00399353 -0.0255362)
(0.00741432 -0.0160178 0.0262101)
(-0.0287643 -0.00851344 0.0729625)
(-0.0413759 0.00442501 -0.0615538)
(-0.0126747 0.0110402 -0.000476501)
(-0.0135323 0.00575129 0.00117433)
(0.00500081 0.0034855 -0.00221555)
(-0.0164149 0.00651719 -0.000434486)
(-0.0258284 0.00899836 -0.00642117)
(-0.0260054 0.0053972 -0.0043214)
(-0.0305853 0.00991777 0.0118204)
(-0.0172303 0.00952341 0.00504646)
(0.00389405 -0.00225346 0.00199717)
(-0.00522874 -0.0082694 0.000370925)
(-0.00467931 -0.00772078 -0.000983797)
(-0.00165478 -0.0106119 0.00087081)
(0.000759788 0.00323631 3.55499e-05)
(-0.00382444 0.00237234 6.06158e-05)
(0.00579765 -0.00440401 0.000121886)
(-0.000329165 -0.000767976 0.000160937)
(0.00485918 -0.00159764 0.000337584)
(-0.00131601 -0.00161341 0.000782871)
(0.0011873 -0.000230261 -6.25698e-06)
(0.00158922 0.000102694 -8.66106e-05)
(0.00114059 8.28669e-05 3.95097e-06)
(0.000988354 6.36009e-05 -2.50568e-05)
(0.00150012 0.000152495 4.45032e-06)
(0.000656887 -9.25739e-05 2.47851e-05)
(0.000434162 -3.62661e-05 1.25816e-05)
(0.000443127 -4.97667e-05 1.07448e-05)
(0.000705518 -9.24663e-05 2.99628e-05)
(0.000313227 -4.81559e-05 6.40713e-06)
(0.000897714 2.81967e-06 -1.35978e-06)
(0.000939027 4.16303e-05 -2.19169e-06)
(0.00127167 -3.04066e-06 -1.71474e-06)
(0.000691595 -1.65104e-05 -4.83026e-06)
(0.000692714 8.34209e-06 -5.375e-06)
(0.00117849 -4.5614e-05 -5.43525e-06)
(0.00118551 1.1504e-05 -6.20799e-06)
(0.000865992 4.38944e-06 -1.85419e-07)
(0.000863537 2.52704e-05 -3.81618e-07)
(0.00116279 4.14403e-06 1.0011e-07)
(0.000845961 3.3147e-06 4.50513e-08)
(0.000850734 1.57907e-05 1.08771e-07)
(0.00114126 3.50749e-06 1.9191e-07)
(0.000833921 2.42744e-06 2.97643e-08)
(0.000835689 9.58597e-06 1.25904e-08)
(0.00111855 2.79079e-06 1.75652e-07)
(0.00082607 1.67201e-06 5.81795e-08)
(0.00082767 6.39954e-06 7.74128e-08)
(0.00110641 2.09218e-06 1.51099e-07)
(0.000820683 1.10509e-06 4.7459e-08)
(0.000821915 3.74286e-06 4.68535e-08)
(0.00109799 1.37988e-06 1.80557e-07)
(0.000816846 7.30757e-07 4.93662e-08)
(0.000817876 2.23643e-06 5.44301e-08)
(0.00109198 9.21985e-07 1.79007e-07)
(0.000813817 4.84975e-07 5.06757e-08)
(0.000814777 1.36741e-06 5.33166e-08)
(0.00108748 6.03545e-07 1.87641e-07)
(0.00081134 3.10632e-07 4.93846e-08)
(0.000812258 9.30971e-07 5.0574e-08)
(0.00108392 4.21021e-07 1.82001e-07)
(0.000809181 3.3455e-07 9.08212e-08)
(0.00081011 5.9088e-07 5.99808e-08)
(0.00108092 2.32727e-07 1.77034e-07)