/*--------------------------------*- C++ -*----------------------------------*\
| =========                 |                                                 |
| \\      /  F ield         | OpenFOAM: The Open Source CFD Toolbox           |
|  \\    /   O peration     | Version:  5.0                                   |
|   \\  /    A nd           | Web:      www.OpenFOAM.org                      |
|    \\/     M anipulation  |                                                 |
\*---------------------------------------------------------------------------*/
FoamFile
{
    version     2.0;
    format      ascii;
    class       volScalarField;
    location    "3.9";
    object      alpha.water;
}
// * * * * * * * * * * * * * * * * * * * * * * * * * * * * * * * * * * * * * //

dimensions      [0 0 0 0 0 0 0];

internalField   nonuniform List<scalar> 
8094
(
1.10055
1.02515
0.984842
0.989726
0.975794
1.00761
0.225083
-2.41222e-20
-2.89335e-20
8.67538e-18
2.10769e-18
5.94235e-20
1.42715e-22
2.23926e-26
2.51613e-30
9.09295e-34
3.768e-37
1.65228e-40
7.1727e-44
2.90189e-47
1.38802e-50
5.94957e-54
2.62526e-57
9.57948e-61
6.36866e-64
8.31822e-67
2.2502e-70
4.54985e-74
2.24391e-76
3.27467e-80
3.78605e-83
6.74292e-87
8.7626e-90
4.03991e-92
1.54634e-95
9.86286e-99
3.39176e-102
1.48822e-104
3.02749e-108
2.48774e-112
5.27954e-115
7.86744e-118
8.0138e-121
2.14897e-123
4.30956e-127
3.67275e-130
6.30829e-134
8.84561e-138
2.59109e-139
1.62852e-142
1.04167
1.07005
0.978677
1.04123
1.02463
1.009
0.601236
-1.19824e-18
-4.0804e-18
1.50394e-16
2.32013e-18
6.94252e-21
3.72401e-23
1.82813e-26
1.36662e-30
3.79097e-34
1.56154e-37
6.61106e-41
2.82215e-44
1.16699e-47
4.94206e-51
2.09986e-54
1.01141e-57
4.33101e-61
1.68026e-64
7.96647e-68
4.70178e-71
1.55457e-74
1.02388e-77
4.29227e-81
2.11664e-84
5.51019e-87
7.69063e-91
1.70607e-93
4.75028e-97
5.54863e-100
2.09911e-103
1.84011e-107
7.02575e-109
6.24338e-112
7.92277e-116
8.40372e-119
1.04412e-122
2.13304e-126
3.38725e-129
5.05474e-132
3.743e-136
9.71245e-140
4.01919e-143
6.05603e-144
1.00656
1.03589
1.03883
0.999333
1.12626
0.999705
1.00018
-1.9719e-16
-1.47967e-18
6.90101e-23
1.91694e-17
1.24002e-18
2.51788e-21
1.55637e-25
1.8489e-29
6.95164e-33
2.95623e-36
1.33698e-39
6.30816e-43
2.28724e-46
1.10377e-49
4.34708e-53
2.81383e-56
7.67137e-60
5.43609e-63
5.04403e-66
2.69632e-69
3.89262e-73
1.69329e-75
1.72231e-78
1.59514e-82
2.64342e-86
2.38275e-87
2.98724e-90
2.53257e-94
7.79194e-98
4.34584e-101
4.47112e-105
6.12218e-107
3.39967e-110
1.19043e-113
5.95446e-117
7.74148e-120
7.20775e-124
1.579e-127
3.95451e-131
6.48833e-133
9.49445e-136
5.39612e-140
5.41252e-144
1.02136
1.00457
1.01096
1.03941
1.00408
1.00017
0.999661
-2.89047e-14
-5.57991e-19
-4.05288e-21
4.65465e-18
7.22653e-19
1.09274e-20
9.68566e-24
6.5502e-28
1.28461e-31
5.13833e-35
2.3397e-38
9.29713e-42
3.85259e-45
1.71095e-48
6.84741e-52
6.05492e-55
2.48642e-58
1.24304e-61
4.75478e-65
1.14012e-68
6.43659e-71
2.23134e-74
1.76901e-78
1.44755e-80
1.16723e-83
1.96963e-87
4.35873e-91
2.22305e-93
4.37404e-97
1.50739e-100
3.15777e-103
9.11279e-106
7.39422e-109
1.17099e-112
2.29139e-115
8.48753e-119
7.1057e-122
1.0606e-124
4.17331e-128
2.52848e-132
2.54834e-135
2.07552e-138
5.8659e-141
1.01246
1.08385
1.04047
0.983585
0.934219
1.00285
1.00182
0.240629
-8.02203e-19
-1.11609e-21
2.09945e-17
4.35205e-18
9.49664e-20
1.43664e-22
1.4373e-26
2.15493e-30
7.77821e-34
3.35472e-37
1.40696e-40
6.71596e-44
2.52164e-47
1.66912e-50
4.82253e-54
2.63674e-57
9.48526e-61
9.8592e-64
3.51289e-67
3.42876e-70
1.14089e-72
5.24435e-76
4.60529e-79
5.29887e-83
2.21789e-85
3.08175e-89
3.51929e-93
3.2713e-96
2.48867e-98
7.63628e-102
5.20476e-106
7.09023e-109
3.40303e-112
4.24245e-115
1.87572e-117
2.51894e-120
7.9737e-124
1.54956e-127
1.61277e-129
7.83302e-133
6.57411e-136
8.50832e-140
1.00843
0.959182
1.03276
1.00802
1.02357
0.998405
1.00182
0.365066
-1.69632e-18
-1.99437e-22
1.64236e-17
3.42429e-18
7.4893e-20
1.15516e-22
1.16484e-26
1.66131e-30
6.27807e-34
4.21004e-37
1.3271e-40
1.07911e-43
3.20345e-47
1.15762e-50
4.25821e-54
8.59456e-57
2.04678e-60
1.45728e-62
4.02415e-66
4.2575e-70
1.65745e-72
5.48929e-75
4.34066e-78
5.27462e-82
6.80965e-86
6.32365e-89
1.34442e-91
2.09342e-95
1.69065e-98
3.52648e-101
2.92498e-105
8.96377e-108
9.70501e-111
2.64083e-113
1.09915e-116
2.35929e-120
5.84663e-124
9.94681e-127
8.93338e-131
1.7584e-134
6.44884e-138
1.68529e-141
1.00105
1.00529
0.911344
1.06712
0.939851
1.02864
1.00322
0.120859
-2.01366e-19
-1.02199e-21
4.39824e-18
6.78338e-19
1.00931e-20
8.66404e-24
5.77515e-28
1.14864e-31
4.58665e-35
1.94746e-38
8.27044e-42
3.55579e-45
2.13066e-48
6.59135e-52
3.52931e-55
1.17741e-58
1.11936e-61
2.31855e-65
8.52067e-69
1.29609e-71
5.06801e-74
9.2282e-78
1.13168e-81
3.67243e-84
2.97358e-88
4.86519e-91
2.66548e-94
4.39013e-97
9.22806e-101
4.18823e-103
3.05236e-106
2.01338e-109
2.77689e-113
4.193e-116
2.31508e-119
1.13241e-122
1.20858e-125
2.04512e-129
2.54324e-131
8.31136e-135
4.38304e-139
9.12047e-141
1.02765
0.991572
1.00802
0.911945
1.01544
1.00365
1.00167
-7.48597e-17
-9.31986e-19
3.09216e-22
1.84555e-17
1.26003e-18
2.9372e-21
2.07824e-25
2.21637e-29
8.14893e-33
3.41799e-36
1.45454e-39
7.11845e-43
3.32041e-46
1.1605e-49
7.46592e-53
3.78674e-56
8.69952e-60
3.34982e-63
1.65759e-65
1.30985e-68
1.13338e-72
2.14054e-76
4.21162e-78
1.16075e-81
8.90423e-85
8.66464e-88
1.2525e-91
5.6877e-95
2.98996e-97
2.9493e-101
4.9668e-104
3.55062e-107
7.42284e-110
1.35595e-113
9.30744e-117
9.15284e-120
3.54277e-123
1.34725e-126
8.38753e-131
2.62146e-134
1.01543e-137
3.97146e-141
2.02614e-144
1.04011
1.01067
0.977648
0.999405
0.982725
0.996883
1.00002
-3.14459e-17
-8.62062e-20
1.30091e-16
5.31431e-18
1.18906e-20
3.3035e-23
2.19444e-26
2.36672e-30
5.89819e-34
2.4201e-37
1.02996e-40
4.39987e-44
1.86846e-47
7.82564e-51
3.34573e-54
1.39822e-57
5.91708e-61
3.9457e-64
1.08092e-67
4.39967e-71
1.90629e-74
8.42107e-78
3.50408e-81
1.945e-83
2.89334e-87
4.48244e-91
1.51043e-94
1.28457e-96
3.36188e-100
2.24e-103
2.13084e-107
4.83645e-111
5.23096e-113
6.39399e-116
1.2516e-118
3.46296e-122
7.84569e-126
6.13551e-129
2.0181e-132
7.18521e-135
9.15883e-138
1.37852e-140
1.37639e-144
1.02826
1.02385
1.01327
1.01523
1.00081
1.01406
0.636341
-1.14766e-19
-3.91098e-19
2.52437e-32
1.8505e-18
8.55301e-20
2.28955e-22
4.2692e-26
4.47818e-30
1.51858e-33
6.33156e-37
2.69285e-40
1.15054e-43
5.19011e-47
2.09625e-50
8.80178e-54
3.69922e-57
1.54527e-60
7.01205e-64
2.90641e-67
2.26216e-70
7.38649e-74
1.94823e-76
6.78212e-80
4.01179e-83
5.42523e-86
2.84199e-89
1.89382e-92
1.84066e-96
1.90423e-99
5.48058e-102
9.428e-106
5.51519e-108
1.48598e-111
1.1743e-115
4.25829e-119
6.75878e-121
2.65069e-124
7.67123e-128
1.65157e-130
2.29885e-134
4.07741e-137
4.49175e-141
2.97155e-144
1.07245
1.02152
0.961355
0.74642
0.961711
1.00627
0.235356
4.91475e-13
6.70546e-16
5.4926e-18
5.01515e-18
4.4958e-19
4.96662e-21
6.18207e-24
1.21566e-27
3.90466e-31
2.80848e-34
2.10546e-37
1.52341e-40
1.09227e-43
7.83191e-47
5.60697e-50
4.00325e-53
2.85295e-56
2.02851e-59
1.43871e-62
1.01876e-65
7.1978e-69
5.0714e-72
3.56573e-75
2.50051e-78
1.74889e-81
1.22149e-84
8.51321e-88
5.92311e-91
4.11233e-94
2.84666e-97
1.96478e-100
1.35394e-103
9.31722e-107
6.39723e-110
4.38343e-113
2.99625e-116
2.04302e-119
1.3904e-122
9.43806e-126
6.39154e-129
4.32358e-132
2.91759e-135
1.16282e-138
1.09731
1.07565
0.999815
1.0791
1.01325
1.01645
0.602277
7.50571e-11
8.05091e-15
8.48016e-15
2.3073e-16
1.74277e-19
3.11344e-22
2.34157e-25
5.81183e-29
2.72564e-32
2.02766e-35
1.50429e-38
1.08566e-41
7.79019e-45
5.60373e-48
4.01106e-51
2.88639e-54
2.05738e-57
1.45957e-60
1.03621e-63
7.35793e-67
5.20093e-70
3.65924e-73
2.57371e-76
1.81182e-79
1.26854e-82
8.8676e-86
6.19031e-89
4.29094e-92
2.97723e-95
2.06271e-98
1.42312e-101
9.80747e-105
6.73898e-108
4.62323e-111
3.16164e-114
2.1602e-117
1.47517e-120
1.0014e-123
6.79374e-127
4.60854e-130
3.10884e-133
2.09525e-136
8.367e-140
1.02414
1.01779
1.01214
1.02748
1
1.02094
1.00034
6.66846e-10
8.38293e-16
2.77032e-16
3.24865e-16
4.24041e-17
4.03457e-19
1.8315e-22
1.64019e-26
8.2371e-30
6.12055e-33
4.33107e-36
3.016e-39
2.09737e-42
1.45744e-45
1.01119e-48
7.00108e-52
4.84115e-55
3.33893e-58
2.29876e-61
1.58066e-64
1.08426e-67
7.4231e-71
5.08184e-74
3.47229e-77
2.36845e-80
1.61383e-83
1.09684e-86
7.42951e-90
5.02989e-93
3.40002e-96
2.29326e-99
1.5446e-102
1.03782e-105
6.95808e-109
4.65817e-112
3.11384e-115
2.07841e-118
1.38555e-121
9.21976e-125
6.12084e-128
4.05517e-131
2.68087e-134
1.05043e-137
1.01811
1.02141
0.933977
1.04808
1.00733
1.00232
0.999324
1.52987e-06
9.26136e-14
1.24407e-16
3.76439e-17
7.20866e-18
2.76217e-19
1.16095e-21
3.82663e-25
6.00052e-29
3.57923e-32
2.66323e-35
1.9064e-38
1.34575e-41
9.49408e-45
6.68661e-48
4.69616e-51
3.29812e-54
2.30716e-57
1.61175e-60
1.1243e-63
7.83049e-67
5.4522e-70
3.77278e-73
2.60935e-76
1.80198e-79
1.24092e-82
8.53141e-86
5.8597e-89
4.01269e-92
2.74359e-95
1.8722e-98
1.27421e-101
8.65508e-105
5.87118e-108
3.98668e-111
2.69244e-114
1.81801e-117
1.2192e-120
8.18518e-124
5.48333e-127
3.66802e-130
2.44801e-133
9.67246e-137
1.02255
1.07963
0.99967
0.987282
0.99505
1.00404
1.00215
0.250945
2.19785e-13
6.03504e-16
2.50669e-16
8.19834e-17
5.29381e-18
4.0621e-20
2.34778e-23
2.92315e-27
1.40467e-30
1.04975e-33
7.56337e-37
5.32867e-40
3.74931e-43
2.63545e-46
1.84784e-49
1.29397e-52
9.04081e-56
6.30194e-59
4.38737e-62
3.04803e-65
2.11211e-68
1.46087e-71
1.00857e-74
6.94558e-78
4.77722e-81
3.27737e-84
2.24356e-87
1.53386e-90
1.04625e-93
7.11802e-97
4.83544e-100
3.27922e-103
2.2201e-106
1.50074e-109
1.01188e-112
6.80608e-116
4.57052e-119
3.06363e-122
2.04871e-125
1.36795e-128
9.11582e-132
3.59395e-135
1.0064
0.872156
1.04277
1.00591
1
0.999945
1.00248
0.378174
2.33499e-13
8.017e-16
4.95453e-16
1.61271e-16
1.14484e-17
9.4574e-20
5.70143e-23
6.83585e-27
3.19905e-30
2.39013e-33
1.72061e-36
1.21043e-39
8.49988e-43
5.9642e-46
4.176e-49
2.91864e-52
2.0354e-55
1.41604e-58
9.84472e-62
6.82977e-65
4.72679e-68
3.26579e-71
2.24975e-74
1.54602e-77
1.06194e-80
7.27965e-84
4.9763e-87
3.39664e-90
2.31349e-93
1.57247e-96
1.06739e-99
7.22981e-103
4.88681e-106
3.29822e-109
2.22095e-112
1.49164e-115
1.00021e-118
6.69225e-122
4.46721e-125
2.97956e-128
1.98466e-131
7.82353e-135
1.13279
1
0.949288
1.07575
0.867846
1.02544
1.00232
0.127501
7.86442e-14
9.47649e-17
2.80951e-17
4.96713e-18
1.77638e-19
7.18486e-22
2.40004e-25
3.98377e-29
2.35611e-32
1.73853e-35
1.23796e-38
8.73441e-42
6.16115e-45
4.37504e-48
3.05581e-51
2.15624e-54
1.51734e-57
1.04981e-60
7.31957e-64
5.1009e-67
3.54941e-70
2.48418e-73
1.70654e-76
1.17812e-79
8.13522e-83
5.60133e-86
3.88595e-89
2.64434e-92
1.80681e-95
1.24064e-98
8.47754e-102
5.72775e-105
3.88407e-108
2.63415e-111
1.78061e-114
1.20252e-117
8.08608e-121
5.43057e-124
3.69296e-127
2.44379e-130
1.63332e-133
6.97958e-137
1.10799
1.00441
1.10458
0.977585
1.01371
1.0506
1.0021
6.18832e-07
6.34751e-16
3.18453e-16
3.92611e-16
5.50304e-17
5.92415e-19
3.18688e-22
2.81697e-26
1.32426e-29
9.86591e-33
7.00304e-36
4.88001e-39
3.39637e-42
2.36235e-45
1.63987e-48
1.13593e-51
7.85867e-55
5.42671e-58
3.73918e-61
2.57219e-64
1.76579e-67
1.20967e-70
8.2806e-74
5.66272e-77
3.86433e-80
2.63223e-83
1.78856e-86
1.21277e-89
8.21532e-93
5.55393e-96
3.74679e-99
2.52531e-102
1.69819e-105
1.13944e-108
7.63317e-112
5.10421e-115
3.40579e-118
2.26964e-121
1.50943e-124
1.00112e-127
6.63222e-131
4.39042e-134
1.72224e-137
1.05753
1.03206
0.960641
0.959657
1.00014
0.939966
1.0002
6.96315e-11
6.66435e-15
6.76752e-15
6.36509e-16
2.73439e-18
5.22205e-22
8.55256e-26
4.14892e-29
2.77808e-32
1.93641e-35
1.31643e-38
8.89487e-42
6.19361e-45
4.25448e-48
2.94836e-51
2.04596e-54
1.41159e-57
1.01923e-60
6.92863e-64
4.68253e-67
3.23338e-70
2.26031e-73
1.5353e-76
1.08656e-79
7.28533e-83
5.07455e-86
3.40958e-89
2.32529e-92
1.59518e-95
1.08712e-98
7.38911e-102
5.01811e-105
3.41143e-108
2.31291e-111
1.56851e-114
1.06591e-117
7.14681e-121
4.83145e-124
3.30021e-127
2.18677e-130
1.46008e-133
9.79014e-137
3.90663e-140
1.03693
1.04428
1.00913
1.02826
0.992665
1.01729
0.636806
1.03791e-12
3.35379e-15
5.35529e-18
3.00234e-18
2.26353e-19
1.94631e-21
1.86716e-24
3.73214e-28
1.38484e-31
1.00818e-34
7.59406e-38
5.5278e-41
3.98633e-44
2.87299e-47
2.06668e-50
1.48274e-53
1.06206e-56
7.58885e-60
5.4079e-63
3.84663e-66
2.7303e-69
1.93359e-72
1.3661e-75
9.62617e-79
6.7648e-82
4.74168e-85
3.31758e-88
2.31577e-91
1.61394e-94
1.12191e-97
7.77639e-101
5.37802e-104
3.71362e-107
2.55828e-110
1.75863e-113
1.20612e-116
8.25181e-120
5.63482e-123
3.83806e-126
2.6083e-129
1.77053e-132
1.19833e-135
4.78725e-139
1.02985
0.938683
0.996145
0.999067
0.958219
1.006
0.23564
-1.35725e-19
-3.23565e-20
3.69441e-18
1.02923e-18
2.91154e-20
7.71762e-23
1.41845e-26
1.55259e-30
5.69888e-34
2.26382e-37
9.71917e-41
4.47708e-44
2.88793e-47
9.28439e-51
4.46512e-54
2.01811e-57
6.29126e-61
5.57669e-64
6.60291e-67
2.16022e-70
7.39455e-74
6.12172e-77
1.20881e-80
9.68036e-83
4.78254e-86
1.19415e-89
3.04292e-92
1.41967e-95
4.80357e-99
4.64646e-102
4.11859e-105
3.48326e-109
4.82738e-111
2.29454e-114
1.8828e-118
8.33369e-121
1.36673e-124
4.96789e-128
3.80707e-130
8.24055e-134
6.99059e-137
9.28966e-140
1.56321e-142
1.03617
1.09676
1.02285
1.05862
1.11209
1.01295
0.60213
3.62688e-11
-4.4406e-18
1.4765e-16
2.82427e-18
8.37093e-21
4.50738e-23
2.28725e-26
1.69998e-30
4.65931e-34
1.91698e-37
8.11274e-41
3.43682e-44
1.43102e-47
6.16555e-51
2.54592e-54
1.18458e-57
4.60199e-61
1.98515e-64
8.46931e-68
5.14363e-71
1.69867e-74
3.4922e-77
6.79516e-81
7.53663e-84
9.56285e-87
8.438e-90
1.47233e-93
1.23131e-96
5.82805e-100
1.02437e-103
2.874e-107
1.90301e-108
2.94591e-111
3.20163e-115
5.13491e-119
2.35538e-122
1.23639e-124
3.55374e-128
1.03928e-131
1.18443e-134
1.20701e-138
2.59447e-142
3.43081e-145
1.00409
1.03026
1.01253
1.00892
0.818958
1.00332
1.00037
3.36394e-10
-1.70954e-18
6.98286e-23
1.91194e-17
1.23871e-18
2.53409e-21
1.60233e-25
1.93384e-29
7.23962e-33
3.06076e-36
1.39152e-39
6.57277e-43
2.32713e-46
1.27041e-49
4.32586e-53
3.01788e-56
1.7383e-59
1.16109e-62
2.17984e-66
2.25572e-69
4.74794e-73
1.65913e-76
1.6629e-78
4.58393e-82
3.15159e-86
1.09797e-89
2.18555e-91
7.4656e-95
7.67529e-98
4.2817e-101
1.45714e-104
1.36785e-107
4.71517e-111
1.87825e-113
5.12336e-117
9.61048e-121
2.17187e-123
3.29702e-127
3.79886e-131
1.20079e-132
1.14297e-135
2.2788e-139
5.72864e-142
1.02948
1.02032
1.00838
0.996631
1.02028
0.999614
0.999594
1.22413e-06
-5.37513e-19
-4.03574e-21
4.80813e-18
7.47121e-19
1.13149e-20
1.00246e-23
6.7706e-28
1.32697e-31
5.3121e-35
2.28872e-38
9.51507e-42
4.01943e-45
1.71197e-48
6.92672e-52
3.51854e-55
2.38117e-58
8.36809e-62
3.6655e-65
1.02532e-68
1.11517e-70
7.62987e-74
4.59986e-78
1.23501e-80
1.19625e-83
2.05517e-87
2.95606e-91
7.64151e-94
1.2222e-97
2.28441e-100
2.59726e-103
1.72591e-107
1.39206e-109
1.04335e-112
1.87905e-115
2.29877e-118
1.294e-121
1.05874e-124
4.06205e-128
2.76349e-131
1.80592e-135
4.13187e-139
1.61533e-142
0.989359
1.05332
0.925939
0.983102
1.08795
1.00828
1.002
0.252342
-8.0667e-19
-1.1621e-21
2.17023e-17
4.50739e-18
9.90633e-20
1.50444e-22
1.50574e-26
2.17006e-30
8.06676e-34
3.43039e-37
1.65616e-40
6.64148e-44
2.51786e-47
1.13061e-50
5.05117e-54
2.71157e-57
1.89742e-60
2.8189e-63
3.11024e-67
7.7211e-71
4.40282e-74
3.11146e-76
3.4663e-79
2.07919e-83
1.5222e-85
4.94404e-89
5.53811e-92
5.48972e-96
2.43403e-98
6.07673e-102
2.52929e-104
1.86489e-107
1.31648e-111
8.4143e-114
3.15797e-117
7.79686e-121
7.82742e-124
9.83039e-128
2.45821e-129
1.30741e-132
4.4031e-136
9.12727e-139
0.993991
1.00386
0.997343
1.00334
0.968034
0.999418
1.0023
0.378615
-1.70296e-18
-1.97844e-22
1.65594e-17
3.5134e-18
7.67817e-20
1.18699e-22
1.19821e-26
1.70702e-30
6.46807e-34
2.85124e-37
1.1965e-40
1.61008e-43
3.33231e-47
3.66696e-50
8.81988e-54
3.6164e-57
1.35521e-60
3.91924e-64
3.89584e-67
8.73727e-71
2.59315e-74
2.87976e-75
4.11203e-78
2.32979e-81
1.92338e-85
1.37187e-88
1.66696e-92
2.97804e-95
1.83307e-98
3.94803e-101
3.45774e-105
1.19619e-107
8.31392e-111
1.23583e-114
7.15829e-117
3.61098e-120
1.14203e-123
8.80807e-128
2.54973e-131
1.1921e-132
6.72595e-136
2.4179e-140
0.997355
0.927072
0.919894
1.04084
1.00021
1.02574
1.00236
0.127586
-1.89156e-19
-1.14534e-21
4.27834e-18
6.5878e-19
9.77222e-21
8.38369e-24
5.59211e-28
1.11351e-31
4.44618e-35
1.93549e-38
8.1006e-42
3.40155e-45
2.42795e-48
6.95933e-52
2.96145e-55
1.55105e-58
8.19348e-62
6.29052e-65
1.25348e-68
5.03806e-72
4.23759e-74
2.18865e-77
1.3804e-81
7.40428e-85
1.98395e-88
4.71676e-91
1.23186e-93
3.66971e-97
5.19809e-101
3.08568e-103
6.69699e-107
7.47747e-111
1.79366e-113
1.69597e-116
3.03697e-119
1.16031e-122
4.96162e-126
4.015e-130
9.68298e-134
3.74684e-137
2.56933e-140
1.78299e-140
1.13479
1.03945
0.999983
0.96321
1.01769
1.07773
1.00198
4.9529e-07
-9.53188e-19
3.31308e-22
1.8519e-17
1.27379e-18
3.00542e-21
2.14391e-25
2.26344e-29
8.30665e-33
3.50601e-36
1.46168e-39
7.25259e-43
3.19639e-46
1.18977e-49
7.80626e-53
4.80279e-56
8.94248e-60
1.38789e-62
2.17181e-66
8.97865e-69
1.09801e-71
7.48289e-76
1.76908e-79
5.65142e-83
2.97577e-85
5.30314e-88
2.47309e-91
2.80517e-95
8.93412e-98
5.18509e-101
2.25979e-104
3.16326e-107
1.04907e-109
9.6392e-114
3.43473e-116
1.52237e-119
3.66103e-123
1.43779e-126
1.17048e-130
3.90382e-134
1.51802e-137
5.94698e-141
2.26544e-144
1.04696
1.02228
0.945893
1.00618
0.997297
0.950898
1.00015
3.23711e-11
-8.67248e-20
1.39737e-16
5.96779e-18
1.26504e-20
3.01815e-23
1.93596e-26
2.13015e-30
5.3891e-34
2.21076e-37
9.38647e-41
4.00855e-44
1.70892e-47
7.15445e-51
3.03935e-54
1.27764e-57
5.42211e-61
2.31196e-64
1.302e-67
4.23169e-71
1.73439e-74
6.91631e-78
3.02538e-81
1.25837e-83
1.85688e-87
2.49363e-90
2.01301e-93
1.40359e-96
5.16438e-100
1.90886e-103
1.22391e-106
1.10747e-110
6.7175e-113
1.03985e-116
1.40565e-120
1.85347e-122
1.88584e-125
4.84239e-129
7.2218e-133
2.38972e-135
2.59722e-138
1.52815e-140
3.56823e-144
1.07891
1.03097
1.0555
1.03613
1.00247
1.02238
0.637575
-1.1997e-19
-3.67376e-19
-5.04871e-32
1.34725e-18
6.16896e-20
1.6096e-22
2.98196e-26
3.18149e-30
1.07958e-33
4.51345e-37
1.9479e-40
8.21887e-44
3.47776e-47
1.49748e-50
6.46485e-54
2.65251e-57
1.13876e-60
5.68564e-64
2.59993e-67
1.055e-70
4.01847e-74
7.84496e-77
4.22638e-80
5.00407e-84
6.15399e-86
2.63816e-89
2.05482e-93
6.90034e-97
2.80143e-99
1.69922e-102
2.59359e-106
5.58763e-108
3.53001e-111
8.59099e-115
1.86141e-117
5.82353e-121
1.04638e-124
1.73545e-127
1.76957e-130
9.22639e-134
7.03998e-137
5.80398e-141
1.13159e-144
0.93191
1.02963
1.00005
1.00682
0.927614
1.02843
1.0005
1.00002
1.00803
1.00045
1.01028
1.00013
1.01941
1.00107
1.0012
1
1.0022
0.989962
1.00163
0.999601
1.00234
1.00056
1.00137
1.00189
1.00113
1.00133
0.999192
1.00356
1.00399
1
1.00279
1.00275
1.00395
1
1.00229
1.00205
1.02089
1.00534
1
1.00171
1.0227
1.00546
1.00445
0.987942
1.00379
1.02851
1.00655
0.979026
1.00363
1.00481
0.999403
1.00133
1.03394
1.0048
0.992299
1.00124
1.0003
1.00346
1
0.9459
1.00044
1.00143
1
1.00029
1
0.971916
1.01696
1.00032
0.999112
0.967169
0.927036
1.02871
1.00056
1.0049
0.925756
1.0289
1.00059
1.00026
1.023
1.00144
1.01675
1.00028
1.02142
1.00137
1.0021
1
1.00289
1.00329
1.00172
0.996662
1.00234
1.00195
0.999609
1.00296
1
1.00179
0.99801
1.00206
1.0048
1
1.00291
1.00801
1.00405
1
1.00207
1.00209
1.02466
1.00583
0.999956
1.00178
1.0301
1.00551
1.0055
0.999872
1.00378
1.02292
1.00573
1.01288
1.00382
1.00499
0.995506
1.00159
1.06941
1.00485
0.989574
1.00124
1.00066
1.00179
1
0.942314
1.0004
0.992208
1
1.00051
1.00017
0.96908
1.02015
1.00039
1
0.966172
0.926442
1.02802
1.00049
1.00637
0.93351
1.02847
1.00013
1.00035
1.00342
1.00158
1.01198
1.0001
1.01114
1.00138
1.00206
0.991765
1.0029
0.997774
1.00152
0.995583
1.00209
1.00209
0.9993
1.00319
0.999498
1.00128
1.00357
1.00186
1.00455
0.999404
1.00273
1.02544
1.00391
0.988029
1.00238
1.0021
1.02886
1.00576
0.999413
1.00192
1.03112
1.00537
1.00534
1.0332
1.00391
1.03497
1.00558
1.05839
1.00389
1.00511
0.998592
1.00147
1.08505
1.00525
0.984838
1.0013
1.00042
1
1
0.994198
1.00035
0.999305
1
1.00054
1
0.966848
1.02617
1.00016
1.00481
0.972954
0.997512
1.03523
1.05312
0.951964
1.00134
1.02862
1.05145
1.00565
1.00656
1.00306
1.00698
1.00305
1.00672
1.00603
-5.70626e-21
0.44275
-2.89877e-17
0.234436
1.70668e-10
0.443979
1.70668e-10
1.01153
1.01526
0.970655
1.00219
1.04296
1.00778
0.950138
1.0082
1.0104
0.991191
1.01023
1.01013
1.00714
1.00778
-2.65968e-18
1
-6.21926e-16
0.602611
3.2034e-08
1.00003
7.09873e-09
0.962367
1.02945
0.827371
1.01264
0.999547
1.03734
0.871413
1.00022
1.00245
0.979639
0.998228
1.00082
0.994577
0.999969
-1.59642e-14
1.00115
0.119637
1.00063
2.8346e-07
1.00128
0.126641
0.938634
0.974947
0.985576
1.00517
0.937783
0.964411
0.988409
1.00565
1.00101
1.00594
1.00031
1.00268
1.00088
1.00323
0.356028
0.999013
0.867582
0.999651
0.365966
0.998977
0.866295
0.995749
0.98634
0.993305
0.973774
1.05443
0.977056
0.941023
0.997664
1.00409
0.996769
1.00355
1.00448
0.952448
0.999705
0.948223
1.00183
1.00001
1.00223
0.941361
1.00223
0.990847
0.997884
0.975051
1.05474
0.974799
0.994248
0.926803
1.05898
1.00003
0.999997
0.972424
1.03674
1.00009
0.994833
1.00067
1.00002
1.00353
0.943318
1.00266
0.9914
1.00417
0.935538
1.00808
1.06506
0.99407
0.888703
1
1.02517
0.985358
1.02318
1.01858
1.03175
1.02789
1.01806
1.01532
1.02092
0.847215
1.00166
0.349293
1.0036
0.848258
1.0019
0.360033
0.941101
0.997088
0.93363
1.0397
0.922493
0.96067
0.902853
1.00394
1.01381
1.01217
1.02969
1.01333
1.02876
1.00179
0.143359
1.00026
-2.70532e-21
1.00227
0.147467
1.00033
5.7437e-07
0.835272
1.01832
1.00207
1.01759
0.844291
0.99796
0.999789
0.993016
1
0.967645
0.990447
1
0.99924
0.989979
1.73472e-21
0.774561
-5.08895e-19
1.00023
2.80981e-08
0.774992
4.24359e-10
0.983592
0.987818
0.977008
1.00006
0.984443
0.958563
0.938429
1.00402
1.01207
0.985388
1.01495
1.01187
0.989461
1.00273
-4.78035e-19
0.263035
-9.13157e-20
0.637238
1.1727e-09
0.27249
1.35623e-09
0.990148
1.0086
1.09443
0.950937
1.00477
0.995461
1.07698
1.00403
1.0054
1.00054
0.995477
1.00413
0.995948
1.00497
6.77782e-10
0.443913
6.77781e-10
0.23701
6.77782e-10
0.443779
6.77781e-10
1.01804
0.987738
1.02034
1.12584
1.02196
1
0.841771
1.00713
1.0089
1.01461
1.03763
1.00781
1.00819
1.02428
5.0885e-08
1.00008
1.28257e-08
0.60219
5.13168e-08
1.00011
1.29279e-08
1.13228
1.0482
0.996344
0.821751
1.46234
1.04534
1.24703
0.992934
1.00278
0.867258
1.00937
0.998893
1.00267
0.868177
4.40808e-07
1.00177
0.125929
1.00077
4.44847e-07
1.00129
0.126086
0.982013
0.985392
0.988204
1.01395
0.972551
1.00664
0.96921
1.0067
1.00556
0.981674
1.00382
1.00639
1.00684
0.983151
0.367086
0.998592
0.866305
0.999322
0.367138
0.998915
0.867285
1.02264
0.998823
0.946444
0.962048
1.01603
1.00054
0.976913
0.999739
1.00395
0.959274
1.00267
0.998486
1.0039
0.981848
0.943224
1.00249
0.991178
1.00251
0.943401
1.00246
0.990928
0.992002
0.930217
1.05076
0.995338
0.989455
1
1.02717
1.00035
1
1
1
1.00032
1.00002
1.00004
0.992337
1.00475
0.93747
1.00286
0.991862
1.00453
0.936952
1
1.03372
1.0323
0.869338
1.00487
1.06186
1.09201
1.02456
1.01783
1.01221
1.03135
1.02308
1.01894
1.01188
0.847654
1.00161
0.362418
1.00281
0.848592
1.00162
0.361274
0.966104
0.970369
0.87712
1.04594
0.949911
0.966648
0.988779
1.00734
1.01479
1.07675
1.07609
1.00654
1.01525
1.06478
0.147246
1.00076
9.12682e-07
1.00231
0.147899
1.00032
9.13817e-07
0.939099
1.00164
1.00068
0.994076
0.895859
0.99317
0.973443
0.985362
1
0.948376
0.9351
0.987923
0.999998
0.985257
4.57387e-08
0.775595
7.13876e-10
1.00032
4.57612e-08
0.775578
7.37893e-10
0.988192
0.986488
0.988194
1.01292
1
1
0.994003
1.00716
1.01244
1.01727
1.018
1.00623
1.0132
1.01697
3.51696e-09
0.27049
4.91604e-09
0.637773
3.51696e-09
0.274381
4.78924e-09
0.989604
0.972897
1.03715
0.945037
0.999493
0.956409
1.03485
1.00241
1.00379
0.993562
1.00996
1.00237
0.992968
1.00382
1.81018e-10
0.443827
1.81017e-10
0.223109
-4.47749e-21
0.442463
-6.01025e-17
1.01658
1.01766
0.780474
0.981141
1.03428
0.976822
1.01822
1.00772
1.00722
1.01706
1.01349
1.00684
1.00645
1.0366
3.26788e-08
1.00022
7.19541e-09
0.601242
-2.25404e-18
1
-5.85797e-16
1.32351
1.03911
0.949662
0.885526
0.93263
0.934475
1
1.00072
1.0018
1.03447
1.00851
0.999987
1.00182
1.04919
2.90082e-07
1.00171
0.12626
1.00023
-2.03988e-14
1.00117
0.119485
0.972258
1.01006
0.935913
1.01062
0.959036
1.01477
0.986291
1.00927
1.00792
0.995001
0.992521
1.0087
1.00825
0.995036
0.365518
0.999199
0.865648
0.99968
0.355668
0.999767
0.868287
0.988655
1.00832
0.898154
1.03351
1.00337
1.00125
0.875653
1.00179
1.00339
1.00175
1.12256
1.00166
1.00347
1.02232
0.941827
1.00236
0.990845
1.00181
0.948494
1.00164
1.00001
0.994476
1.03076
1.03782
1.02271
0.992947
1.00204
1.04756
0.9997
0.997254
1.02164
0.984117
1.00033
0.999292
1.01856
0.991918
1.00456
0.936649
1.00201
1.00002
1.00336
0.943433
0.985122
1.00893
1.07134
1.06705
1.01681
1.02894
1.08613
1.02452
1.0198
1.01482
1.03158
1.02279
1.02095
1.03411
0.847119
1.00185
0.360968
1.00291
0.846284
1.00159
0.349613
0.990794
0.997901
1.03786
1.00197
1.1192
0.980584
1.00103
1.00955
1.01749
1.07296
1.08259
1.01316
1.01672
1.07652
0.146779
1.00068
5.77773e-07
1.00161
0.143031
1.00021
-1.41485e-21
0.900352
0.990937
0.97368
0.979477
0.656766
1.00294
0.959965
0.999964
0.99634
0.953382
0.947119
0.997688
1
0.923462
2.82131e-08
0.775612
4.02242e-10
1.00003
0
0.774037
-2.07954e-18
1.00466
0.98993
0.991936
1.00667
0.996705
0.980922
0.986964
1.00742
1.0136
0.981405
1.02417
1.00627
1.01367
0.990612
1.15475e-09
0.273135
1.15475e-09
0.637415
-4.56057e-19
0.262152
-8.53291e-20
1.0023
1.00047
0.948608
0.929133
0.944032
1.002
1.00086
1.01061
1.02704
1.01396
1.02821
1.02654
1.01344
1.01271
1.00114
0.965357
1.00492
1.00021
0.960879
1.00465
1.00072
1.00501
1.00788
1.0055
1.0018
1.00199
1.0043
1.00602
1.00256
0.926741
1.00107
0.941122
0.940975
1.0024
1.00115
1.00955
1.02811
1.02514
1.01273
1.02611
1.014
1.00798
1.00114
1.00045
0.955912
1.00493
0.957914
1.00475
1.00133
1.00569
1.00523
1.00098
1.00008
1.00499
1.00117
1.00585
1.00015
1.00257
1.00437
1.02853
1.04518
1.00389
1.00019
1.00107
1.00045
1.00075
1.00055
1.0006
1.00093
1.00154
1.00776
1.00975
1.00979
1.00491
1.01017
1.00212
1.00796
1.00573
1.00022
1.00477
1.00148
1.00495
1.00131
1.00537
1.00059
1.02592
1.08496
1.00296
1.06056
1.00404
1.00032
1.00131
1.00128
1.00075
1.00172
1.00093
1.00163
1.00117
1.00167
1.00173
1.00235
1.00142
1.00192
1.00222
1.00243
0.986115
0.954197
1.00027
1.00003
0.949253
1.00055
0.987694
1.00023
1.00417
1.00227
1.00238
1.00216
1.00218
1.00062
1.00015
1.01569
1.00167
0.940056
1.00397
0.964501
0.999334
1.00152
1.00213
1.002
1.00232
1.00256
1.00258
1.00078
0.988333
1
0.961226
1.00024
0.935354
1.00048
0.984434
1.00027
1.00286
1.00354
1.00221
1.00251
1.00241
1
1.00068
1.00046
1.00029
1.00344
1.00113
1.00165
1.00006
1.00005
0.973551
1.00112
1.0014
0.973751
1.00111
1.00044
1.0002
1.0014
1.00136
1.01942
1.00406
1.00137
1.00046
1.00611
1.00058
1.00429
1
1.00313
0.999543
1.0063
1.00087
1.00448
1.00176
1.00381
1.00157
1.00319
1.00085
0.999934
1
0.984384
1.00322
0.976629
1.0018
0.998991
1.0002
1.0165
1.00459
1.00219
1.00621
1.00173
0.999814
1.00299
1.00415
1.00463
1.00412
1.00405
1.00437
1.00368
1.00034
0.998978
1.00005
1
0.996539
1.00009
1.00085
1.00181
1.00356
1.00112
1.00255
1.00332
1.00075
1.0024
0.990935
0.980575
1.00412
0.899814
1.00324
0.899771
0.998641
1.0031
1.00477
1.00397
1.00416
1.00451
1.00468
1.0031
1.00058
1
0.999276
1.00004
0.992406
1.00031
1.00025
1.00224
1.00297
1.00304
1.00074
1.00384
1.00108
1.00156
1.00053
1.00051
1.00274
1.0018
1.00028
1.00267
1.00086
1.00272
0.996057
1.01231
1.01756
1.00265
1.01194
1.00417
1.00382
1.00425
1.00719
1.00521
1.0041
1.00714
1.00417
1.00014
1
1
0.999671
1
0.99552
1.00002
1.00057
1.00205
1.00023
1.00263
1.00044
1.00297
1.00034
1.00908
1.02078
1.02066
1.0117
1.01302
1.01177
1.01127
1.00605
1.0054
1.00442
1.00706
1.0047
1.00719
1.00616
1.01156
1.00881
1.00783
0.995006
1.00942
1.01059
1.01068
0.998772
0.861287
0.999603
0.915177
0.881885
1.0015
1.00214
1.00576
1.0043
1.00702
1.00116
1.00363
1.00665
1.00522
1.02336
1.0279
1.01785
1.01375
1.01764
1.01476
1.02402
1.01196
0.994785
1.00954
1.01219
1.00857
1.01114
1.01303
0.999102
0.963044
0.902589
1.00533
0.898033
1.00341
1.00151
1.00612
0.999291
1.00398
1.00691
1.0034
1.007
1.0062
1.0081
1.0117
1.00283
1.00466
1.01127
1.00299
1.00878
1.00382
0.998183
1
0.994914
1.00103
1
1.00427
1.00698
1.00268
1.0027
1.00128
1.00275
1.00225
1.0072
1.00463
1.05551
1.01517
1.06353
1.01424
1.04881
1.00564
1.00778
1.00485
1.01056
1.00322
1.01108
1.00323
1.00755
1.00313
0.99505
1.00025
1
0.99658
1
1.00323
1.00696
1.00161
1.0028
1.00231
1.00295
1.00246
1.00668
0.997594
1.00051
1
1.00043
1.00041
1.00001
0.998942
0.94717
0.999506
1.00044
1.00029
0.99717
1
0.928513
0.994669
1
0.998099
1
1
0.998214
0.998677
0.986876
0.973693
0.999288
0.927656
0.999762
0.973744
0.989433
0.999251
1.00075
1.00032
1
1.00045
1.00004
0.999322
0.993164
1.00205
0.990848
0.997576
0.990161
0.997996
0.992601
0.99276
1
0.999549
0.996811
0.999864
0.997365
0.995794
1.0012
1.00342
1
1.00024
1.00406
1
1.00114
1.00074
0.999208
1.00346
1.00055
0.999173
1.00102
1.00194
1.00081
0.99698
1.00034
0.968542
0.994339
1.00087
1.00065
1.0044
1.01529
1.01152
1.01927
1.01141
1.00464
1.00512
1.00128
1.00046
1.0044
1.00003
1.00431
1.0001
1.0012
1.00044
1.00145
0.992884
1.00057
0.979495
1.00039
1.00147
1.00097
0.963707
0.990379
1.0005
0.992398
1.00082
1.00109
1.0019
1.00124
0.94137
0.92743
1.00238
0.943169
1.00096
1.00616
1.02297
1.01175
1.03202
1.00721
1.01921
1.011
1.00116
0.954349
1.00526
1.00063
1.00125
0.953519
1.00531
1.00379
1.00756
1.00423
1.00365
1.00327
1.00315
1.00517
1.00179
0.926327
1.00126
0.947503
0.945686
1.00139
1.00129
1.00506
1.02932
1.01102
1.01189
1.01497
1.01094
1.00361
1.0011
1.00068
0.954153
1.00526
0.953394
1.00549
1.00079
1.0054
1.00496
1.002
1.00022
1.0057
1.0048
1.00207
1.00218
1.07103
1.00248
1.03009
1.00096
1.0211
1.00255
1.00112
1.00112
1.00194
1.00127
1.00109
1.00098
1.00183
1.00695
1.01106
1.00827
0.961333
1.00813
1.00886
1.00485
1.00551
1.0004
1.00492
1.00233
1.00499
1.00239
1.00537
1.00355
1.03577
1.02545
1.00379
1.03029
1.00315
1.00419
1.00153
1.00152
1.00117
1.00251
1.00129
1.00223
1.00173
1.00029
1.0024
1.00263
1.00168
1.00072
1.00204
1.00191
0.982268