/*--------------------------------*- C++ -*----------------------------------*\
| =========                 |                                                 |
| \\      /  F ield         | OpenFOAM: The Open Source CFD Toolbox           |
|  \\    /   O peration     | Version:  5.0                                   |
|   \\  /    A nd           | Web:      www.OpenFOAM.org                      |
|    \\/     M anipulation  |                                                 |
\*---------------------------------------------------------------------------*/
FoamFile
{
    version     2.0;
    format      ascii;
    class       surfaceScalarField;
    location    "3.9";
    object      alphaPhi10;
}
// * * * * * * * * * * * * * * * * * * * * * * * * * * * * * * * * * * * * * //

dimensions      [0 3 -1 0 0 0 0];

internalField   nonuniform List<scalar> 
24280
(
1.08033e-08
1.8242e-09
-9.03249e-09
-2.04033e-08
-1.70246e-08
-2.02324e-08
-4.26962e-08
-1.43113e-08
5.45529e-08
3.64774e-08
1.7818e-08
-5.22229e-08
-6.05442e-08
6.51933e-08
1.13428e-09
-1.18374e-08
3.30492e-08
2.13652e-08
-8.06428e-09
1.42148e-08
-9.27725e-09
-9.55782e-09
-3.96053e-09
-1.24087e-09
1.88422e-08
-5.23184e-11
6.27741e-08
6.27968e-08
6.27763e-08
2.02489e-22
1.71906e-18
-1.55807e-19
6.42759e-19
1.05329e-17
-3.87864e-17
2.60926e-17
1.74601e-18
1.78356e-18
1.74635e-18
-1.80239e-25
1.63096e-22
-9.73412e-25
1.00797e-26
3.51314e-26
1.42375e-28
4.08317e-28
-1.46009e-29
2.61964e-30
2.49465e-30
1.8276e-30
-3.89575e-33
6.26823e-34
2.36919e-33
-7.06649e-34
5.79766e-38
1.37915e-37
-3.40906e-36
1.82184e-41
4.65485e-41
1.78233e-40
7.38133e-45
9.14354e-45
1.01415e-42
3.03522e-48
3.50182e-48
-2.56403e-46
1.25379e-51
5.04139e-52
-2.48594e-49
5.14871e-55
3.05437e-55
1.27323e-52
2.11902e-58
7.97006e-59
-3.42305e-56
8.88159e-62
2.16848e-62
3.22116e-59
3.6943e-65
5.67567e-66
-1.07888e-61
1.51911e-68
4.8248e-69
-1.55953e-64
6.37814e-72
-6.13158e-75
4.60626e-69
3.74178e-75
5.41243e-76
5.96537e-71
2.71865e-78
5.31468e-79
-1.44693e-73
7.71218e-82
1.06909e-82
-2.94242e-77
5.63885e-85
-1.13622e-86
-1.43583e-80
1.10879e-87
4.50334e-88
-6.931e-84
1.57289e-91
-1.06675e-93
6.40548e-88
1.0474e-94
5.79567e-95
1.22595e-91
3.68022e-98
2.13535e-99
-1.57665e-94
7.51459e-101
-1.83733e-102
2.0978e-96
2.2507e-103
-1.19525e-103
3.15159e-100
4.20208e-107
3.83787e-108
-3.08715e-102
2.54835e-110
-6.98087e-112
-1.17071e-105
2.9e-113
2.46205e-114
-8.20327e-109
7.8617e-116
1.06394e-116
-8.03141e-112
7.30684e-120
-1.2137e-120
1.89561e-118
2.73432e-123
-2.02083e-124
-1.1152e-124
2.90783e-126
2.47509e-127
-4.54509e-122
3.05139e-129
3.31974e-130
-8.25265e-125
4.45674e-132
9.39036e-133
2.70858e-127
9.2413e-135
1.69564e-135
-3.08954e-131
1.48741e-138
-1.05907e-139
-1.86539e-134
9.95678e-142
9.99601e-142
-1.21312e-136
2.45477e-145
2.66853e-149
1.11542e-141
4.37446e-148
-1.0267e-151
-9.78472e-146
4.9488e-150
2.01056e-151
-4.99103e-147
5.74692e-155
6.97279e-155
8.48211e-08
1.60275e-08
-3.51048e-07
4.80389e-08
6.35923e-08
4.7316e-08
1.2412e-08
6.28462e-08
5.67023e-08
5.68974e-08
1.84054e-09
5.3768e-08
2.33739e-09
-2.02746e-08
-2.38393e-08
4.67375e-08
-3.60388e-07
1.74678e-08
4.85435e-08
1.46762e-10
-1.72589e-08
-2.96123e-08
-1.12515e-07
-9.47696e-10
-5.99249e-08
-8.00207e-08
2.37079e-08
3.64069e-08
2.88395e-08
-6.34077e-08
1.46438e-08
-6.27333e-09
2.15019e-08
-9.80292e-09
-6.73011e-10
-6.23345e-09
1.20599e-10
-4.24706e-11
1.78329e-08
6.03913e-11
1.78169e-08
-1.57872e-18
1.74137e-18
2.76599e-08
2.15275e-18
-1.10067e-24
-1.95502e-22
1.8181e-23
3.47992e-22
5.86534e-22
2.5349e-21
-6.41656e-22
1.42932e-25
3.59201e-26
2.16895e-26
1.54557e-28
5.12403e-27
3.98095e-30
1.04668e-31
9.62105e-30
1.19063e-32
3.13435e-34
8.18864e-34
8.68835e-35
3.37551e-38
1.61026e-37
5.6967e-38
7.30363e-42
4.3456e-41
4.37674e-42
2.83888e-45
1.4617e-44
-1.32672e-43
1.16179e-48
3.91878e-48
-4.61676e-47
4.76535e-52
2.40861e-51
5.3147e-50
1.95158e-55
5.74488e-55
1.81301e-53
7.95456e-59
6.64391e-59
1.2943e-56
3.25064e-62
3.23916e-62
6.6924e-60
1.34549e-65
5.7746e-66
2.02336e-63
5.67417e-69
1.40201e-68
-2.67817e-65
2.33291e-72
5.52239e-72
-1.55409e-68
9.564e-76
4.83251e-76
-1.47515e-72
4.2071e-79
-5.32567e-79
3.54714e-75
1.88845e-82
-6.6865e-82
-7.49244e-79
8.00214e-86
-1.1873e-86
-9.53407e-82
3.94885e-89
2.93255e-89
-1.52702e-84
1.70481e-92
-2.67701e-91
-2.6339e-89
1.42181e-95
-2.15278e-96
-2.21728e-91
1.95449e-98
1.15778e-99
-3.9746e-94
4.09213e-102
-1.54005e-99
-2.51649e-99
3.42513e-105
-7.73423e-103
2.40451e-99
1.54515e-108
5.38151e-109
-4.29251e-104
1.47171e-111
-1.66923e-111
7.58964e-107
4.48714e-115
3.23516e-114
-8.54434e-110
1.08339e-117
1.88685e-119
8.52091e-120
1.55585e-119
-1.22128e-120
-2.31215e-116
1.37728e-123
-7.23645e-124
6.42112e-119
3.49977e-127
-1.00804e-126
-1.43918e-123
2.27538e-130
1.09728e-130
-1.97484e-126
5.42678e-134
5.68948e-133
-2.90111e-129
2.29964e-137
-6.40268e-138
-1.19349e-138
1.96714e-140
7.18054e-141
1.3368e-135
1.40281e-143
8.41957e-145
-4.31899e-138
2.98161e-147
-4.96819e-146
-9.53059e-143
1.12158e-150
-1.69862e-149
1.90542e-147
9.00367e-153
1.15762e-154
5.95361e-151
1.65756e-158
-1.06073e-151
7.42074e-08
2.00593e-08
-2.12978e-07
-1.03284e-08
-2.84691e-08
1.04854e-07
-2.32561e-08
-1.92095e-09
2.52987e-08
3.50773e-09
-1.17554e-08
-9.86294e-09
-1.19933e-08
1.21793e-07
1.34863e-07
1.62196e-07
1.46147e-08
1.62902e-08
-1.14649e-08
-6.42187e-09
-4.60384e-08
2.37488e-09
9.03488e-08
-3.67488e-08
-3.60836e-08
-6.97194e-08
-9.21624e-08
5.66937e-09
1.04466e-08
-8.96012e-08
-1.80349e-09
-3.20481e-09
3.25268e-09
5.90307e-09
-1.49453e-09
3.31614e-10
3.90125e-10
9.34872e-10
-1.53044e-10
1.44826e-09
1.04689e-16
-1.1904e-18
-5.2958e-18
-8.19487e-16
8.6289e-16
4.65532e-17
-3.09013e-18
-5.74826e-09
-5.74826e-09
-5.74826e-09
-5.74826e-09
1.81785e-23
-2.52975e-21
2.86547e-22
7.82786e-20
9.20221e-20
1.14701e-19
1.14745e-20
-9.75744e-26
-3.10181e-25
-7.69957e-27
-5.57005e-28
-5.57093e-28
5.63579e-29
1.13696e-28
2.78957e-29
2.1383e-29
9.55717e-33
1.05769e-31
6.21371e-32
7.13537e-37
1.33272e-35
-2.67838e-36
2.51714e-40
2.86828e-39
-2.14291e-39
1.01377e-43
7.56991e-43
-5.38971e-42
4.1117e-47
1.77229e-46
-3.2957e-45
1.67904e-50
6.09519e-50
-7.03616e-48
6.80969e-54
1.68443e-53
5.85442e-51
2.73577e-57
2.74835e-57
-4.50039e-54
1.11899e-60
1.14376e-60
-1.00926e-56
4.63872e-64
3.08787e-64
-2.46942e-60
1.97312e-67
7.86579e-68
-2.70238e-63
7.80156e-71
-2.42972e-72
-3.61101e-67
3.87404e-74
7.73423e-75
4.2057e-70
2.18956e-77
-9.37378e-78
-8.07578e-73
8.89606e-81
2.38015e-81
-6.62549e-76
5.04468e-84
1.20667e-84
-1.84516e-82
9.92174e-87
-9.44463e-88
2.70511e-83
4.30303e-90
1.50539e-91
-5.11792e-85
8.07979e-94
-3.93106e-94
-8.86274e-95
3.5665e-96
-1.76477e-96
2.66193e-98
1.08213e-97
1.83558e-99
-8.89121e-95
8.17788e-102
1.31545e-102
-1.96694e-97
1.11357e-105
5.09191e-107
-7.52888e-101
4.64566e-109
-8.43884e-110
-1.65225e-105
1.93368e-112
2.71645e-113
-5.96818e-108
1.48502e-115
-3.64232e-117
2.62934e-112
6.02631e-118
3.31122e-119
-4.41942e-114
7.87559e-122
2.06806e-122
2.94881e-117
3.45862e-125
1.54247e-125
1.86021e-120
2.40236e-128
5.19235e-128
-2.11448e-124
1.75991e-131
-1.64298e-132
1.44706e-126
3.30039e-135
-3.92415e-135
1.85664e-130
1.17351e-138
-1.30532e-138
9.46741e-134
1.32987e-141
-2.92008e-142
5.06745e-140
5.28427e-144
1.80707e-145
-3.21643e-140
2.35377e-147
5.01939e-148
-2.93911e-143
2.85568e-151
-5.24721e-153
1.99692e-149
-2.06875e-154
1.29328e-154
3.58769e-09
1.15811e-08
-4.0171e-07
1.21525e-08
1.15141e-08
1.19711e-08
5.01376e-08
7.27744e-09
-5.2318e-08
3.35164e-08
4.48368e-08
4.50733e-08
2.14247e-08
3.47596e-09
6.49496e-09
6.74472e-09
1.42475e-08
7.01811e-08
-3.04975e-09
-8.66961e-08
2.52954e-09
4.3907e-07
9.73686e-08
-2.60053e-08
8.46486e-08
8.93087e-08
7.22947e-09
7.72788e-09
5.13902e-08
-1.64414e-09
6.65523e-10
1.0155e-08
-5.65369e-10
-3.0299e-08
-1.06276e-08
-2.54432e-08
2.91665e-07
-2.97746e-08
3.65856e-07
1.02434e-08
-4.97103e-08
2.8518e-08
-1.07625e-07
-5.37959e-08
-5.96017e-08
-1.2264e-07
2.02814e-09
-1.93954e-08
3.41678e-09
2.989e-09
1.12529e-08
-1.53484e-10
4.4371e-10
-2.4633e-10
-2.62837e-10
-3.39859e-10
-2.11038e-10
-4.39565e-10
4.99929e-10
4.31948e-10
5.23655e-10
-1.41188e-10
2.58648e-11
1.07282e-11
-1.15263e-10
6.34694e-14
4.04071e-16
2.3357e-08
4.43851e-15
2.3357e-08
-1.76427e-22
-3.87569e-20
-4.01895e-21
3.01907e-19
1.87519e-19
-5.77957e-20
6.83818e-19
5.93452e-27
-7.13545e-24
-2.22462e-25
1.66361e-27
-9.09904e-27
1.03962e-29
1.12197e-28
-7.70177e-28
9.21455e-30
2.41525e-31
-4.50948e-30
1.64047e-32
2.16889e-35
-9.84683e-34
-8.19536e-35
3.13312e-39
-1.1251e-37
-4.01468e-38
1.15686e-42
-2.91346e-41
-1.40603e-42
4.70743e-46
-6.70868e-45
-7.39664e-44
1.92843e-49
-1.32862e-48
-1.28029e-46
7.79122e-53
-7.55872e-52
-7.94297e-50
3.16838e-56
3.87066e-56
-1.34364e-53
1.29169e-59
1.08483e-59
-3.99493e-57
5.63646e-63
-4.29454e-63
-1.55183e-59
2.82098e-66
-3.17573e-66
1.14297e-62
1.1599e-69
7.87897e-69
1.13392e-66
5.13451e-73
2.72071e-74
-2.75512e-69
2.04995e-76
-7.56669e-77
-4.42855e-72
1.58055e-79
3.18013e-80
-1.63069e-75
3.72947e-82
7.1231e-83
-1.27858e-78
4.94022e-86
-6.25681e-85
-1.43747e-81
3.28276e-89
7.32627e-90
3.04039e-85
1.15524e-91
9.90446e-93
-8.20332e-88
2.77303e-95
-1.36914e-95
-6.76561e-91
7.31014e-99
-3.88513e-97
-2.04971e-93
5.62451e-102
-6.75316e-102
-2.06898e-97
1.14676e-104
1.60691e-105
-2.1539e-100
1.51157e-108
-7.39894e-110
-1.25718e-103
1.01372e-111
-8.73347e-112
-7.11058e-107
2.22429e-114
-2.43748e-115
-5.13125e-110
4.60765e-117
1.46648e-117
-4.03325e-113
1.70096e-120
6.70074e-121
-3.57247e-116
6.7128e-124
-1.14246e-125
-1.81013e-119
8.32745e-127
1.92155e-127
-3.0123e-122
2.81108e-130
2.3133e-130
7.49069e-126
3.16708e-133
-2.68095e-132
-1.81586e-128
3.45802e-136
-8.0104e-137
-3.35371e-132
8.43951e-140
-6.78453e-142
-1.23054e-135
2.38802e-143
1.20472e-143
-5.2394e-140
1.37138e-146
8.08965e-147
-3.46094e-142
1.40678e-149
6.87316e-151
-1.71051e-146
-1.40125e-151
-1.30272e-148
9.27104e-09
1.11778e-08
1.4281e-08
1.73037e-08
-2.08452e-08
-2.02745e-08
-1.4744e-08
-9.45056e-09
-2.43139e-08
2.08579e-09
1.69239e-08
-2.13128e-08
-1.10412e-08
6.03597e-09
3.99735e-08
2.04054e-08
1.70214e-08
1.24709e-08
1.93796e-08
-9.08657e-08
-4.19198e-08
-1.07535e-07
1.18824e-08
1.22584e-08
1.22591e-08
1.30255e-08
9.85576e-08
8.01502e-08
8.26877e-08
8.85703e-08
-1.82932e-10
-2.79467e-08
5.66301e-09
-5.39025e-09
2.63029e-08
-3.16168e-09
1.74203e-10
-7.66469e-10
5.03794e-11
1.87353e-10
-4.40827e-10
7.16909e-10
2.66693e-10
2.14575e-10
3.89531e-10
2.27342e-10
-1.53093e-10
2.41728e-12
3.09072e-08
2.71763e-11
3.09097e-08
6.17429e-23
4.00436e-20
-3.40169e-20
3.24657e-18
1.33229e-17
-9.9756e-18
1.69183e-17
-3.62957e-26
1.03802e-23
-1.82817e-24
5.65391e-27
-5.03555e-28
6.60482e-30
8.90635e-28
-6.37636e-28
4.15709e-29
2.97866e-30
-3.63862e-30
-2.16701e-30
4.36663e-34
7.80047e-34
-7.24193e-33
4.80551e-38
1.64088e-37
-1.86116e-35
1.64562e-41
1.95695e-41
-2.33679e-38
6.61705e-45
-1.21918e-45
2.48964e-44
2.706e-48
8.26363e-51
-1.63824e-45
1.11428e-51
5.19731e-53
-8.91815e-50
4.60789e-55
-7.74053e-56
-4.36563e-51
1.93169e-58
-3.67807e-59
-1.21481e-55
8.50107e-62
-3.15328e-63
4.42273e-58
3.31707e-65
-4.34018e-66
-4.46958e-61
1.41337e-68
-1.61165e-69
1.02049e-65
6.46349e-72
3.77159e-73
-3.63941e-68
3.66191e-75
2.69766e-75
-5.7831e-71
1.66159e-78
3.14904e-79
-1.02903e-73
2.36859e-81
-8.9684e-83
5.67766e-77
5.32069e-84
-5.49781e-86
-2.98679e-80
1.61264e-87
-1.46837e-87
-1.23688e-82
1.07995e-90
-4.17138e-91
-3.10666e-86
5.34143e-94
5.05496e-95
-8.8793e-90
1.0595e-96
8.30563e-98
-4.10706e-92
1.09309e-100
-9.56663e-102
-1.07039e-96
3.99351e-104
-9.19626e-104
-1.39719e-100
5.25302e-107
3.91221e-108
-2.62125e-102
1.51807e-109
2.04131e-110
-3.31174e-105
1.76739e-113
2.55319e-114
-2.86362e-108
5.50255e-117
2.63165e-119
1.09059e-117
2.75167e-120
3.47684e-120
3.84672e-115
1.46036e-123
5.41713e-123
7.74965e-119
3.26296e-126
2.92263e-125
5.83254e-121
1.22113e-128
1.73242e-128
7.27493e-125
8.07868e-132
-8.61554e-133
-8.98449e-127
1.81705e-135
-5.98169e-136
1.11407e-130
2.78117e-138
-4.42617e-139
-8.65575e-135
1.54798e-140
1.38238e-141
-3.41595e-137
2.29104e-144
1.49959e-144
-1.96939e-140
1.51983e-147
4.66134e-148
-1.02205e-143
3.08088e-152
-3.44378e-146
1.46731e-08
2.058e-08
1.82715e-08
2.78743e-08
-5.50785e-09
-1.43284e-08
2.29378e-08
-1.57873e-08
-3.67433e-09
1.42141e-07
-2.60284e-08
-2.21714e-08
1.32532e-08
-1.98165e-08
2.38455e-08
1.96976e-08
-1.79381e-08
1.13151e-08
2.30863e-09
5.62948e-09
-3.71185e-08
-5.07845e-08
-2.38707e-08
1.28742e-07
4.50066e-08
2.43459e-08
-9.14307e-09
-1.12357e-08
-1.2925e-07
5.92798e-08
1.42031e-07
-2.63587e-08
-2.41939e-09
5.27974e-09
5.7777e-09
-4.80906e-09
2.24689e-08
2.43331e-08
2.23014e-08
1.49335e-09
2.98334e-08
8.85029e-10
-1.99835e-10
-3.14747e-08
-1.04762e-09
6.85909e-10
-8.13674e-10
-1.09511e-11
-1.72295e-10
-1.32514e-09
7.79959e-10
8.35973e-11
1.4333e-10
1.86535e-10
1.70305e-10
-2.48337e-10
-1.31194e-12
6.27796e-08
4.16335e-11
6.27763e-08
-3.68438e-23
4.10576e-20
-1.22112e-20
6.81423e-18
1.05232e-17
-6.68839e-18
1.22437e-17
2.86472e-25
6.28646e-24
-2.51632e-24
8.33231e-27
-7.4903e-29
2.41878e-30
6.75897e-28
-3.18916e-28
-7.78052e-30
2.3536e-30
-2.10225e-30
-1.95101e-29
3.52657e-34
7.17879e-35
5.58197e-34
3.85771e-38
1.00961e-38
9.43296e-36
1.31724e-41
-1.22571e-41
-3.27152e-38
5.53404e-45
-3.55446e-45
-6.73523e-43
2.44552e-48
-3.1692e-48
-9.21355e-45
1.02416e-51
-2.55083e-52
1.21274e-48
4.92247e-55
5.01484e-55
-1.0706e-50
1.80232e-58
-6.89425e-59
4.35506e-54
7.137e-62
7.57046e-63
3.11066e-57
3.83263e-65
-1.01283e-65
-3.62548e-62
3.19328e-68
9.06634e-72
-1.0017e-63
2.68836e-71
-3.02833e-73
-8.57114e-68
1.0158e-73
8.52331e-75
-3.45398e-71
8.69556e-78
8.93757e-79
-8.8708e-74
4.70621e-81
-7.96647e-83
-2.17868e-76
1.42642e-83
-4.74618e-85
-1.47158e-79
3.05744e-86
1.39261e-86
-1.76632e-82
9.62677e-90
5.3728e-90
-1.18773e-85
1.87186e-93
-3.2697e-96
-1.97847e-89
7.14489e-97
4.77588e-98
-2.57437e-93
5.29655e-100
4.94818e-101
-9.00944e-95
4.48786e-103
4.9424e-104
-1.39844e-98
1.0748e-106
-6.93947e-108
4.79905e-102
1.00014e-109
-1.73841e-110
5.06479e-105
1.14035e-112
2.09213e-113
-6.97931e-108
2.63064e-116
-1.60302e-118
5.82606e-112
4.21275e-119
-2.53938e-120
1.5487e-114
5.66726e-122
-7.16417e-124
-4.67759e-119
1.14493e-124
-8.5433e-127
1.73108e-120
2.17469e-128
5.13233e-129
1.08035e-123
7.20953e-132
-4.2528e-134
-1.75722e-127
3.80983e-135
-5.14706e-137
-6.12668e-131
2.97385e-138
-1.76201e-141
-5.03334e-134
5.70554e-142
3.48302e-143
1.23531e-142
2.08599e-145
1.43194e-147
1.46839e-141
8.00782e-149
3.46294e-150
-9.22022e-146
4.36277e-153
1.37617e-152
1.00025e-08
-2.4793e-09
-1.23891e-09
1.04595e-08
3.72689e-08
-1.95055e-08
1.03273e-07
1.40765e-07
8.93478e-08
3.00577e-08
2.96487e-08
2.10146e-08
3.63786e-09
2.65428e-08
2.63252e-08
2.56862e-08
2.58978e-08
-2.1267e-08
-3.84281e-08
-3.79467e-08
-2.22733e-08
1.92976e-08
4.70553e-08
6.1977e-10
-2.70997e-08
-3.73374e-08
-2.34587e-08
4.2712e-10
2.10791e-08
-3.69788e-09
-7.40583e-09
-1.29353e-08
-9.08413e-10
-1.00032e-09
1.33949e-09
-6.15655e-10
1.48482e-09
7.82834e-11
-7.12522e-10
7.15764e-11
2.51232e-10
1.14493e-10
1.49844e-10
-5.19945e-11
-4.12495e-12
2.21657e-08
1.58641e-11
2.21645e-08
-2.86397e-22
1.57182e-21
-1.07901e-20
2.26211e-18
-5.39446e-21
-1.46345e-18
2.84852e-19
-9.07382e-27
3.05508e-25
-3.10626e-25
3.09387e-27
-9.91781e-28
-4.41991e-30
1.32942e-28
-4.40913e-29
-1.64332e-30
2.16361e-31
-6.97175e-32
-2.3061e-32
1.87381e-35
-8.07517e-36
-1.40917e-34
2.81271e-39
-2.04934e-39
-4.48915e-38
1.04588e-42
-5.55574e-43
3.91408e-42
4.25131e-46
-1.59275e-46
1.0915e-45
1.73681e-49
-4.96548e-50
-5.70572e-47
7.10872e-53
-1.53757e-53
-2.21491e-50
2.99295e-56
-5.42983e-57
-6.72772e-53
1.27829e-59
-1.44414e-60
6.39176e-56
5.08439e-63
-3.2272e-64
-1.03672e-59
2.13742e-66
-5.77374e-68
-8.86183e-63
9.29108e-70
-3.21544e-71
-2.61687e-67
4.59349e-73
3.89839e-75
-4.68238e-69
1.53568e-76
-2.20816e-78
-2.34995e-73
7.46319e-80
-6.59824e-81
-7.85874e-76
1.12549e-82
-3.77321e-84
-1.38784e-78
2.40529e-85
5.14398e-87
-1.50741e-81
2.43106e-89
1.57082e-90
6.48681e-86
1.21428e-92
-1.70799e-93
-5.48287e-92
1.44887e-95
-5.79005e-98
1.06883e-91
2.44788e-99
-8.30237e-101
-3.76499e-100
1.84922e-102
1.04074e-103
1.31882e-97
1.26437e-105
-3.87818e-107
-1.54195e-100
1.17915e-108
4.5581e-110
8.69575e-104
8.49584e-112
-2.48453e-113
-2.41779e-107
2.47393e-114
1.16272e-115
-9.28903e-110
8.93448e-118
-1.40577e-120
-1.94639e-113
4.48919e-121
-5.62315e-122
-3.27749e-116
1.68058e-124
9.4571e-127
-5.67237e-120
1.6279e-127
-1.28426e-128
-1.47077e-122
7.0047e-131
1.55778e-132
-1.29551e-125
4.48779e-134
1.02379e-135
-1.16766e-130
3.3291e-137
-2.55173e-138
-4.11664e-132
4.29828e-140
7.60493e-143
-5.66644e-136
2.60952e-142
1.99298e-145
-7.00347e-139
1.57556e-146
-1.87051e-148
2.55286e-147
1.62391e-149
-1.69721e-152
1.11579e-150
6.33208e-153
2.44849e-149
-6.89872e-09
-3.12563e-08
-6.18137e-08
-1.45019e-08
-9.9259e-09
-2.09167e-08
-2.06522e-08
-1.41996e-09
-3.37601e-08
4.881e-08
4.1141e-08
7.13601e-08
8.83361e-08
7.37684e-08
7.792e-08
3.40265e-08
7.26483e-08
2.18944e-08
7.50505e-08
3.37756e-08
3.44274e-08
3.37715e-08
2.39739e-08
2.47712e-08
1.74427e-08
1.77834e-08
-4.24513e-08
2.52728e-08
1.23788e-08
2.02421e-08
1.1203e-08
-2.94724e-08
-8.79719e-09
-7.99065e-09
-7.04601e-09
-2.39145e-08
-4.82807e-09
-6.59083e-09
4.45159e-08
-2.61355e-07
-4.30715e-07
6.02084e-08
1.50174e-09
-1.6616e-08
6.60786e-09
3.35948e-09
1.68748e-08
-2.07303e-09
-7.1727e-10
-1.95781e-08
9.00225e-10
-5.01907e-10
1.40935e-09
-8.3379e-11
1.08141e-09
-1.76459e-13
-4.20211e-16
-1.26131e-08
1.6203e-13
-1.26132e-08
-4.30543e-23
-4.47868e-23
5.97023e-22
1.42135e-20
2.3723e-21
-6.17364e-21
-1.4814e-22
2.52916e-26
-3.33892e-27
1.03143e-26
4.33566e-26
5.47624e-28
1.73849e-29
1.1604e-28
-2.47479e-29
-2.25637e-30
1.17517e-32
-7.27234e-33
-4.43929e-33
8.07716e-37
-4.13151e-37
-6.63722e-35
2.7474e-40
-9.80938e-41
-4.6586e-38
1.10197e-43
-2.20174e-44
-7.6733e-42
4.45877e-47
-7.479e-48
-4.14137e-44
1.8201e-50
-7.16705e-52
5.16967e-48
7.54032e-54
3.2096e-55
-1.80263e-50
3.07398e-57
-4.58648e-58
1.14194e-53
1.26439e-60
-5.08745e-62
1.58399e-57
5.64192e-64
-2.16648e-65
-8.401e-60
2.28934e-67
-2.69953e-69
-1.50992e-63
8.66318e-71
-1.39708e-72
-7.18967e-67
5.5518e-74
-5.26296e-76
-7.71077e-72
1.00427e-76
2.80222e-78
-1.12997e-72
3.01796e-80
6.8647e-82
-8.10368e-76
6.78096e-84
3.33267e-85
-5.53204e-79
8.21223e-87
2.91188e-89
1.47244e-87
5.17932e-89
-6.2009e-93
-2.68249e-85
3.72385e-93
-4.35262e-95
4.08977e-91
3.21416e-96
9.61521e-98
-1.30527e-91
2.09983e-99
3.58858e-100
-8.34374e-95
5.04429e-103
-5.75442e-104
9.61575e-98
6.10156e-106
-8.46612e-109
-4.06602e-101
1.43596e-108
-6.80193e-110
2.14607e-104
1.75929e-112
8.65812e-114
-1.48901e-108
1.89016e-115
1.70635e-117
-6.42766e-111
1.76368e-118
4.1834e-121
-5.05176e-114
2.46022e-121
4.44761e-123
-1.24489e-117
4.70068e-125
-8.01209e-126
9.1056e-121
3.71555e-128
1.29405e-129
-1.37315e-123
2.93957e-131
4.57446e-132
-8.33677e-126
1.10973e-134
2.72306e-136
-3.13563e-130
4.61659e-138
9.07696e-140
-1.38688e-132
1.41351e-141
7.58048e-143
-1.07674e-138
5.43673e-145
-2.02772e-147
1.41732e-145
2.10998e-148
-1.84419e-149
3.52117e-149
7.92526e-152
-1.58706e-152
4.22e-152
1.06047e-157
2.96326e-150
-4.26511e-08
2.96395e-08
1.95326e-07
2.68827e-08
2.39325e-08
2.88583e-08
1.83505e-08
1.03238e-07
2.8553e-08
9.68278e-08
3.53053e-08
5.05322e-08
3.82283e-08
3.05245e-08
1.03747e-07
1.03263e-07
1.0364e-07
6.79742e-09
1.18261e-08
9.84992e-08
1.03413e-07
7.08006e-09
-3.42295e-08
4.53652e-08
-1.7042e-09
8.20473e-09
4.97651e-09
6.75363e-09
6.3758e-08
1.61649e-08
1.07649e-09
-1.51395e-08
6.45068e-08
2.0931e-08
-1.31886e-07
1.04194e-08
6.16953e-08
5.60394e-08
6.24731e-08
-1.48923e-08
2.50622e-09
7.92241e-09
-1.78502e-08
-5.80231e-09
9.90573e-09
-5.00681e-09
5.02387e-10
-3.35988e-10
-2.98344e-10
7.04075e-10
-2.5215e-08
1.96758e-10
-2.4765e-08
2.38886e-16
3.03467e-18
3.22594e-08
3.22594e-08
-9.41207e-19
2.5239e-16
2.71744e-16
2.46969e-16
2.80047e-24
-3.57079e-22
2.04427e-23
9.97831e-22
-6.26794e-23
-2.18503e-21
2.44152e-21
4.76772e-26
-2.16484e-26
-2.81783e-26
2.36255e-28
-4.57321e-28
4.38768e-30
1.28288e-31
-4.44342e-30
3.04232e-31
1.89074e-34
-4.95214e-33
-3.94608e-35
4.55594e-38
-9.46062e-37
-1.01359e-38
9.70618e-42
-1.61437e-40
2.02108e-41
3.73185e-45
-3.88571e-44
-1.78352e-44
1.55262e-48
-1.03035e-47
-1.42967e-46
6.47334e-52
-2.25426e-51
-7.79556e-50
2.6935e-55
-9.54049e-55
-1.68571e-52
1.11636e-58
-1.72247e-58
-1.56905e-56
4.61438e-62
-4.27052e-62
-8.5578e-60
1.90744e-65
-2.1044e-65
1.75158e-63
7.85666e-69
-6.15366e-70
3.50588e-66
3.44187e-72
3.11111e-73
-4.55842e-69
1.57186e-75
7.94033e-76
-1.48675e-71
5.79316e-79
-2.73328e-80
-3.84299e-76
2.37785e-82
-7.42587e-83
-7.8941e-79
9.90068e-86
-3.55093e-86
-5.09657e-82
4.12887e-89
-1.42386e-88
3.29509e-85
4.20118e-92
-1.91837e-92
-2.13924e-88
1.10816e-94
6.54932e-97
-1.25427e-90
9.00359e-99
-2.33851e-98
-3.44453e-96
3.02848e-102
-6.06973e-101
-4.85944e-98
2.91126e-105
-3.22121e-105
-1.08162e-103
9.46578e-108
-2.32499e-109
-1.32609e-103
1.07864e-111
-9.88933e-112
-2.18844e-108
5.28391e-115
4.4119e-114
8.86728e-111
1.41631e-118
-2.19568e-118
-8.32487e-114
1.24707e-121
-1.56391e-120
1.25588e-122
4.13355e-124
7.32071e-126
-6.9553e-120
3.19552e-127
-9.59964e-128
-2.12594e-123
4.50228e-130
1.4473e-130
-6.45478e-126
8.7486e-134
-2.60032e-133
-1.40491e-128
3.71241e-137
-6.48851e-137
-5.29648e-132
1.83258e-140
-7.95509e-141
1.48135e-135
1.67219e-143
-4.28316e-143
-6.04696e-139
4.06287e-146
3.2895e-147
-2.80034e-142
4.15491e-149
-3.70179e-149
-2.32585e-145
4.03868e-152
-8.71614e-153
-3.7187e-148
-2.84936e-156
4.15959e-155
4.53081e-08
1.93306e-08
5.94102e-08
1.99934e-07
3.47006e-07
1.39678e-07
2.88939e-07
-1.31657e-08
-6.02105e-08
-4.4311e-08
3.00965e-07
2.53342e-07
-1.87136e-08
1.07984e-08
5.89381e-09
6.7402e-09
6.1682e-09
6.0211e-09
6.40827e-09
3.30919e-08
2.79753e-09
2.1443e-08
8.1165e-08
-1.42611e-08
1.83275e-08
-1.21051e-07
-7.93977e-08
-1.4178e-08
-1.39425e-08
-1.44186e-08
-1.6151e-08
-8.57199e-10
3.52656e-09
6.17547e-09
1.5797e-09
-1.23141e-08
-1.50543e-10
4.75704e-11
1.79594e-08
-4.50657e-11
1.80031e-08
3.39586e-22
-3.02715e-19
2.22514e-17
8.96339e-18
-3.19711e-17
6.407e-18
-2.24845e-18
-1.71631e-18
-8.33006e-18
-1.71535e-18
-2.72752e-24
-9.32107e-24
8.63373e-28
-9.86446e-28
5.53335e-28
-8.07367e-30
5.64975e-30
-1.61879e-31
1.09644e-33
-7.60202e-34
1.02095e-37
6.43447e-37
3.11207e-41
-2.24118e-40
1.2543e-44
-5.28514e-43
5.15756e-48
3.55693e-47
2.12437e-51
1.36734e-49
8.78528e-55
3.29563e-53
3.62681e-58
-3.22301e-55
1.47726e-61
-1.81311e-59
6.04103e-65
3.22169e-62
2.4668e-68
-1.84014e-65
1.01337e-71
-1.82334e-69
4.19117e-75
6.91542e-72
1.85076e-78
2.36028e-75
8.98987e-82
6.68871e-78
5.6451e-85
-3.75999e-81
7.58887e-88
3.40132e-85
1.99257e-91
2.34135e-88
1.60583e-94
7.9571e-92
1.75679e-97
-6.02949e-94
8.01716e-101
-1.37372e-96
4.13312e-104
-1.55938e-100
1.19813e-107
-1.40261e-103
1.37771e-110
-8.50044e-106
2.08618e-113
-2.23317e-109
1.00827e-116
2.20141e-112
3.6679e-119
-9.22046e-116
3.11422e-123
-3.82893e-121
8.50137e-127
-2.14818e-123
1.25517e-129
2.09371e-125
7.87186e-132
-5.28602e-128
5.96388e-136
-3.10955e-131
4.17647e-139
2.85669e-134
5.68336e-142
-1.56815e-137
1.28386e-145
2.10822e-141
1.20926e-148
6.82757e-146
2.24525e-152
2.45823e-149
8.39309e-151
-4.56909e-09
3.19756e-10
-6.23896e-08
-1.53967e-08
2.88212e-09
-1.26974e-09
1.63284e-08
4.59546e-10
-8.07451e-08
-4.01799e-08
1.26958e-07
6.46272e-10
3.79352e-09
8.65831e-08
-5.10883e-07
5.92036e-07
9.29836e-10
1.82983e-08
-7.10231e-09
1.38489e-08
2.55219e-08
2.5643e-08
2.45228e-08
2.70776e-08
-1.80674e-08
2.88926e-07
1.00063e-08
-2.79332e-08
2.54581e-07
-5.89668e-07
-3.8655e-08
1.5715e-08
-2.00853e-07
1.41021e-08
1.6444e-08
1.49416e-08
1.73369e-08
-7.02123e-08
-1.39123e-09
-6.8751e-09
9.84313e-10
7.91993e-08
-2.02047e-10
-1.17953e-11
-1.64796e-11
4.82397e-08
4.82265e-08
-2.04683e-21
4.21804e-18
1.61815e-19
-5.38588e-17
5.72066e-17
-5.69851e-17
5.53092e-17
5.12396e-18
4.26389e-18
5.12418e-18
1.27268e-24
8.24726e-22
7.63323e-25
8.56011e-27
2.00457e-24
8.07763e-30
6.26102e-27
-9.72037e-28
-2.38413e-30
9.86549e-29
2.56452e-29
3.23048e-31
1.48106e-31
9.74097e-32
-9.71665e-34
3.42115e-35
6.3613e-35
3.25806e-36
9.10258e-39
1.63081e-38
5.6748e-40
6.04873e-42
3.22977e-42
6.50073e-43
4.46953e-45
2.46926e-45
-1.49875e-46
3.17988e-48
3.36602e-49
1.27761e-50
2.23423e-51
1.78147e-51
-1.08542e-51
1.57252e-54
2.74892e-55
1.14044e-55
1.10691e-57
1.23524e-59
9.99417e-59
7.78153e-61
1.77559e-61
-2.67793e-61
5.46715e-64
2.33586e-64
7.9194e-65
3.83785e-67
1.38956e-68
-6.83912e-70
2.69189e-70
-2.85451e-71
2.82427e-71
1.88846e-73
-6.16617e-74
-9.9976e-74
1.32379e-76
1.64017e-77
2.91752e-77
9.27058e-80
-7.55183e-82
1.95751e-81
6.48095e-83
-8.70424e-84
1.66904e-83
4.5281e-86
-3.15128e-89
-5.24198e-87
3.1593e-89
2.23982e-89
-2.22999e-90
2.20368e-92
9.16664e-93
3.8273e-95
1.53668e-95
-2.39046e-96
-6.21152e-96
1.06987e-98
3.5582e-99
-4.41617e-99
7.44418e-102
2.22744e-103
-4.3066e-104
5.17004e-105
-8.20426e-107
-7.46984e-106
3.58143e-108
1.12266e-108
9.67436e-109
2.4795e-111
-2.80206e-113
-7.76095e-113
1.71592e-114
2.60447e-115
-1.76651e-120
1.18538e-117
-7.28021e-120
6.11862e-119
8.17501e-121
9.56252e-122
-1.74559e-122
5.62716e-124
1.01832e-124
-9.73917e-126
3.86636e-127
4.10944e-128
4.59492e-127
2.65138e-130
4.33044e-131
4.01648e-132
1.81374e-133
2.37382e-136
2.75426e-134
1.23731e-136
2.51228e-137
1.18121e-136
8.43289e-140
-1.02987e-141
1.42151e-143
5.73269e-143
-2.88737e-145
1.59884e-144
3.69863e-146
-5.31536e-149
1.75719e-147
4.17294e-150
3.26636e-150
-5.05951e-09
1.97658e-09
-9.13881e-08
-1.2067e-08
4.62348e-09
-2.45393e-08
-3.34925e-09
-2.06981e-08
8.53457e-08
-3.40041e-08
2.95384e-08
-3.65455e-09
8.69654e-08
1.56258e-08
-9.53576e-08
2.36619e-08
-1.31807e-07
6.7971e-09
3.29041e-09
-5.70935e-07
-7.63488e-09
-5.84251e-07
-5.86071e-07
2.05874e-07
-3.96133e-09
7.33145e-10
-2.93175e-09
2.1246e-08
-8.78685e-08
-3.48684e-07
-2.0717e-07
1.8012e-08
5.91005e-08
4.25212e-09
5.27852e-08
-4.73925e-09
3.50201e-09
-1.13741e-07
4.51405e-10
6.83327e-11
-7.91883e-11
-1.78268e-11
-2.86218e-11
-6.89831e-11
-5.07776e-18
4.99111e-18
-1.20657e-18
5.47604e-18
1.06207e-18
-1.38304e-23
-7.49772e-22
-1.34482e-23
-2.91668e-20
-2.07189e-20
-2.95744e-20
-2.07627e-20
1.00882e-23
2.41005e-25
-1.71734e-26
1.56053e-26
1.22788e-25
-3.58923e-30
2.15328e-30
2.20921e-27
-2.09282e-32
2.22641e-33
-2.29736e-30
-1.0429e-34
1.20422e-36
6.3835e-35
-7.33825e-38
5.14616e-40
1.51317e-38
-9.04352e-42
3.59156e-43
-4.5286e-42
5.83579e-44
2.67261e-46
8.02616e-45
-1.88116e-47
1.91062e-49
1.15653e-47
-4.90654e-50
1.35425e-52
1.53303e-50
-1.58287e-53
9.61614e-56
1.07781e-54
4.17854e-57
6.82487e-59
2.54591e-60
-2.43202e-59
4.83351e-62
1.06564e-61
-5.57146e-63
3.43334e-65
-2.97476e-63
1.72791e-65
2.42786e-68
-2.52391e-66
3.48629e-69
1.71283e-71
8.10357e-71
1.00289e-72
1.20945e-74
-6.62844e-74
-7.63017e-76
8.53451e-78
5.23409e-78
1.50672e-78
6.00746e-81
-2.85235e-80
1.08119e-82
4.2248e-84
-2.44405e-83
9.22616e-85
2.9664e-87
1.58431e-86
-9.03208e-88
2.0841e-90
5.62342e-92
3.03762e-91
1.46212e-93
1.64293e-94
1.96431e-94
1.02495e-96
-6.78615e-96
1.56991e-97
7.17422e-100
-2.3072e-99
-3.27102e-100
5.00639e-103
8.33074e-104
7.46708e-104
3.49251e-106
-1.44356e-105
-6.45554e-108
2.43229e-109
-1.25246e-108
4.51509e-110
1.69062e-112
5.11833e-112
5.75119e-114
1.17238e-115
-3.49483e-115
3.42937e-116
8.11154e-119
1.40074e-119
-8.62743e-124
5.60868e-122
-2.32939e-121
3.04733e-123
3.86796e-125
1.13081e-124
-9.78527e-127
2.66405e-128
2.96573e-127
1.10877e-128
1.83274e-131
-1.0881e-130
-2.11514e-132
1.25573e-134
2.95907e-135
-2.0368e-135
8.59067e-138
8.17739e-139
5.81241e-138
5.8659e-141
-3.06055e-140
7.68951e-142
3.98953e-144
1.92691e-145
1.86066e-147
2.57586e-147
3.15911e-148
5.30023e-151
6.58695e-150
-3.93047e-157
1.0261e-08
6.87065e-09
-7.49007e-08
1.06214e-08
1.03475e-08
1.04038e-08
3.1992e-08
1.34823e-07
7.8754e-09
-1.58471e-08
2.52896e-08
6.45567e-07
3.64056e-08
6.20265e-07
5.46593e-09
3.78301e-08
-3.10262e-08
1.83593e-07
-3.66506e-07
-3.29222e-08
-1.81809e-08
-2.04597e-08
-1.91559e-08
-2.22692e-08
-3.70343e-08
-3.33973e-08
-3.1923e-08
-3.33128e-08
-3.57017e-08
-3.55259e-08
-3.52399e-08
-1.92057e-07
-2.68959e-08
-1.28834e-08
-1.35466e-08
-2.08449e-08
9.78653e-09
1.01252e-07
2.30135e-09
-1.12188e-08
4.95925e-09
4.53782e-09
-1.024e-07
6.0283e-10
-1.32922e-10
5.85782e-10
-8.45177e-10
1.29947e-10
-1.08674e-10
1.83457e-15
-1.12109e-17
1.10049e-18
8.024e-18
-1.83244e-15
2.00724e-15
-1.25861e-15
-4.52191e-17
-5.28087e-16
-5.75211e-16
-1.6036e-16
-1.62985e-16
2.79598e-24
-7.90715e-21
-1.53259e-22
2.09785e-20
-1.52614e-19
1.81395e-20
-1.38964e-19
-1.20101e-25
-2.91452e-24
1.43264e-26
4.08341e-25
2.77702e-27
-2.85956e-29
1.33799e-26
1.57574e-27
-1.3944e-29
1.00262e-29
1.39625e-29
-2.18191e-32
7.99095e-34
1.04033e-32
2.56047e-36
3.21826e-37
2.5165e-36
-2.22716e-39
2.3614e-40
9.94698e-40
-5.61889e-42
1.64818e-43
4.50747e-43
-1.60345e-44
1.1233e-46
1.59975e-46
-6.68375e-47
7.63673e-50
1.12745e-49
-5.73215e-50
5.19651e-53
2.10155e-53
1.49753e-55
3.53551e-56
-4.01321e-57
-1.63845e-56
2.40244e-59
7.97136e-60
2.40713e-60
1.63115e-62
-5.97839e-63
-5.00526e-63
1.10554e-65
2.13997e-66
-4.5173e-66
7.48731e-69
2.76277e-69
-2.15597e-69
5.07336e-72
-6.41731e-73
1.21347e-73
3.43216e-75
5.45153e-76
6.05139e-77
2.31803e-78
1.46566e-78
-7.89363e-80
1.56682e-81
7.56722e-82
-5.10544e-83
1.05997e-84
8.07219e-86
2.27604e-85
7.16015e-88
1.93332e-88
-1.20081e-94
4.83733e-91
2.04256e-92
-8.36555e-98
3.26102e-94
1.66269e-94
1.01552e-96
2.19395e-97
3.95251e-98
-2.11057e-98
1.47637e-100
5.05151e-101
2.54914e-101
9.92631e-104
-6.37012e-105
3.69478e-105
6.66519e-107
1.31446e-107
2.25035e-108
4.47326e-110
-4.38957e-111
-7.24222e-111
2.9972e-113
5.69122e-114
1.00475e-114
2.00378e-116
1.54922e-116
-4.71972e-117
1.33894e-119
2.21851e-120
-3.0018e-120
8.93508e-123
-2.9515e-124
-1.15884e-123
5.9543e-126
-4.31212e-126
2.25047e-126
3.96682e-129
-6.20724e-130
-3.13164e-130
2.63696e-132
1.89353e-132
-2.46583e-133
1.74896e-135
7.807e-136
-5.93301e-140
1.15777e-138
1.9573e-139
4.2679e-140
7.64576e-142