/*--------------------------------*- C++ -*----------------------------------*\
| =========                 |                                                 |
| \\      /  F ield         | OpenFOAM: The Open Source CFD Toolbox           |
|  \\    /   O peration     | Version:  5.0                                   |
|   \\  /    A nd           | Web:      www.OpenFOAM.org                      |
|    \\/     M anipulation  |                                                 |
\*---------------------------------------------------------------------------*/
FoamFile
{
    version     2.0;
    format      ascii;
    class       volScalarField;
    location    "3.9";
    object      p;
}
// * * * * * * * * * * * * * * * * * * * * * * * * * * * * * * * * * * * * * //

dimensions      [1 -1 -2 0 0 0 0];

internalField   nonuniform List<scalar> 
8094
(
104.436
104.86
95.2038
102.032
95.5587
94.4728
94.3696
90.3409
88.1166
85.8112
83.4524
81.0662
78.6662
76.2837
73.9087
71.5531
69.2062
66.8882
64.5938
62.325
60.0563
57.8085
55.5877
53.3622
51.1599
48.978
46.799
44.6176
42.4535
40.3187
38.1785
36.063
33.9763
31.8815
29.779
27.7088
25.6918
23.7102
21.7376
19.7566
17.8047
15.8976
13.9941
12.0629
10.1571
8.30099
6.44826
4.58724
2.74788
0.918748
103.912
106.238
121.665
96.8489
99.1534
94.0133
93.2533
90.6271
87.9427
85.7971
83.4542
81.0736
78.6935
76.3011
73.9126
71.5594
69.2067
66.905
64.6173
62.3266
60.0605
57.8097
55.5834
53.3641
51.1503
48.9611
46.7892
44.6215
42.4681
40.3212
38.1947
36.0779
33.9742
31.8749
29.7818
27.7153
25.687
23.6935
21.7168
19.7554
17.8098
15.9007
13.9965
12.0773
10.1639
8.29115
6.43451
4.58399
2.7482
0.918401
100.594
102.438
124.323
99.1889
120.657
91.4451
93.4803
91.1176
88.2711
85.9693
83.5646
81.1272
78.7122
76.3203
73.9304
71.5573
69.2249
66.9277
64.6348
62.3261
60.064
57.8138
55.5731
53.3583
51.153
48.9563
46.7768
44.6268
42.4749
40.3285
38.2005
36.0773
33.9542
31.8625
29.792
27.7308
25.6875
23.6843
21.7141
19.7562
17.8184
15.8985
13.9857
12.0769
10.1734
8.28785
6.42867
4.58523
2.75074
0.918226
100.059
99.0135
98.5145
98.6965
100.63
97.9037
95.8853
92.7483
88.7079
86.2394
83.7164
81.2453
78.7711
76.3468
73.9523
71.5761
69.2337
66.9276
64.6161
62.3306
60.0735
57.8142
55.578
53.3601
51.1645
48.967
46.7766
44.6324
42.4705
40.3166
38.2001
36.0715
33.9465
31.857
29.799
27.7478
25.6938
23.681
21.7149
19.7627
17.8236
15.8884
13.9646
12.0702
10.1814
8.29087
6.42924
4.59241
2.7571
0.91356
106.058
98.2068
100.611
98.2307
103.044
94.7747
96.6281
94.5884
89.0296
86.4265
83.8319
81.2981
78.8204
76.3733
73.9766
71.5943
69.2541
66.9237
64.5993
62.3324
60.0784
57.8138
55.5823
53.3648
51.174
48.9824
46.787
44.6274
42.4571
40.3078
38.1943
36.0647
33.9491
31.8575
29.8013
27.757
25.7037
23.6853
21.7197
19.7737
17.8228
15.8709
13.9457
12.0576
10.1788
8.29249
6.43707
4.60719
2.76595
0.911678
67.3988
90.3966
101.621
96.8533
90.0233
103.337
96.6107
95.1522
89.1425
86.5096
83.8861
81.334
78.8421
76.3948
74.0031
71.6176
69.2708
66.9336
64.6002
62.3283
60.0796
57.8127
55.5848
53.375
51.1789
48.9955
46.7976
44.6225
42.451
40.3003
38.1866
36.0596
33.9404
31.8594
29.8043
27.759
25.7146
23.6962
21.7233
19.7737
17.8181
15.8601
13.9334
12.0495
10.1737
8.29683
6.45329
4.63111
2.77671
0.914899
93.4242
90.3807
95.7431
96.97
108.943
96.7035
96.7357
94.1336
89.0837
86.4602
83.8677
81.3268
78.8547
76.4053
73.9963
71.6135
69.2685
66.9393
64.6025
62.3163
60.0607
57.8095
55.582
53.383
51.1854
48.9952
46.804
44.6196
42.4531
40.3129
38.1872
36.049
33.9338
31.8654
29.8073
27.7534
25.719
23.7067
21.7248
19.7682
17.8099
15.8554
13.9308
12.047
10.1691
8.29851
6.45951
4.63068
2.7802
0.92298
93.5088
97.1585
93.1913
134.797
100.105
101.082
96.2308
93.1223
88.8807
86.3251
83.7719
81.2673
78.8177
76.381
73.96
71.6069
69.2554
66.9269
64.6182
62.3091
60.0528
57.8052
55.5804
53.3842
51.1852
48.9985
46.8052
44.6165
42.4625
40.3172
38.1802
36.0446
33.9378
31.872
29.8059
27.7436
25.7204
23.7246
21.7308
19.7573
17.8048
15.8628
13.9452
12.0507
10.1682
8.3006
6.45775
4.61989
2.77884
0.928146
96.7679
96.4753
98.2689
94.0481
92.1375
97.802
95.0961
91.9498
88.527
86.1272
83.6488
81.1971
78.7638
76.3447
73.9501
71.5927
69.2241
66.9015
64.601
62.3144
60.0439
57.7971
55.5845
53.3793
51.1875
48.9995
46.8015
44.6144
42.4557
40.3148
38.1666
36.0434
33.9541
31.876
29.7975
27.7311
25.7147
23.725
21.7346
19.7575
17.8025
15.8728
13.9599
12.0521
10.1637
8.30214
6.45062
4.60912
2.76802
0.928867
99.1022
99.1585
94.3203
94.3842
94.0893
95.3992
94.5797
90.6468
88.3202
85.9292
83.5294
81.1082
78.688
76.3102
73.9263
71.562
69.2131
66.8965
64.594
62.3114
60.0436
57.7979
55.5867
53.3675
51.1742
48.9935
46.8027
44.6162
42.4531
40.3154
38.1698
36.0496
33.9697
31.8821
29.7852
27.7167
25.702
23.7195
21.7372
19.7564
17.8034
15.8871
13.9773
12.052
10.1587
8.30546
6.45363
4.59751
2.75336
0.91894
103.003
104.61
96.7948
111.234
93.5686
94.3447
94.2164
90.3412
88.1165
85.8111
83.4525
81.0662
78.666
76.2837
73.9087
71.5528
69.2062
66.8883
64.5939
62.3249
60.0562
57.8086
55.5878
53.3621
51.16
48.978
46.7989
44.6176
42.4533
40.3186
38.1784
36.063
33.9763
31.8814
29.779
27.7087
25.6917
23.7102
21.7375
19.7565
17.8045
15.8977
13.9942
12.063
10.1571
8.30101
6.44818
4.58721
2.74783
0.918816
106.605
104.561
104.886
111.483
99.936
93.6394
93.2758
90.6252
87.943
85.7968
83.4542
81.0735
78.6935
76.301
73.9126
71.5593
69.2067
66.9051
64.6172
62.3265
60.0606
57.8098
55.5833
53.364
51.1503
48.9611
46.7891
44.6214
42.468
40.3212
38.1952
36.078
33.9742
31.8749
29.7818
27.7152
25.687
23.6935
21.7168
19.755
17.8098
15.9008
13.9965
12.0771
10.164
8.29118
6.43441
4.5841
2.74839
0.918353
101.3
103.603
124.218
97.6051
108.771
92.0685
93.4696
91.1154
88.2724
85.9692
83.5646
81.1272
78.7122
76.3203
73.9304
71.5572
69.2249
66.9276
64.6348
62.3261
60.0638
57.8137
55.5729
53.3581
51.153
48.9562
46.7769
44.6268
42.4749
40.3286
38.2002
36.0772
33.9543
31.8625
29.7922
27.7308
25.6874
23.6843
21.7141
19.7561
17.8185
15.8986
13.9857
12.0768
10.1736
8.28769
6.42857
4.58527
2.75075
0.918206
100.176
98.4117
108.114
99.4541
100.646
97.9244
95.8925
92.7255
88.7085
86.239
83.7164
81.2453
78.771
76.3467
73.9522
71.5761
69.2337
66.9275
64.616
62.3305
60.0736
57.8142
55.5779
53.3602
51.1643
48.9669
46.7768
44.6325
42.4706
40.3165
38.2
36.0714
33.9465
31.857
29.7991
27.7476
25.6938
23.681
21.7148
19.7626
17.8237
15.8882
13.9644
12.0703
10.1815
8.29086
6.42914
4.59242
2.75709
0.913419
106.964
97.6223
99.9972
96.4805
102.312
94.7118
96.6084
94.479
89.0299
86.4265
83.832
81.2981
78.8202
76.3733
73.9766
71.5944
69.2541
66.9237
64.599
62.3327
60.0784
57.8138
55.5823
53.3649
51.1738
48.9825
46.7871
44.6274
42.4565
40.3077
38.1944
36.0647
33.949
31.8575
29.8013
27.757
25.7038
23.6853
21.7198
19.7738
17.8227
15.8709
13.9457
12.0579
10.1787
8.29247
6.437
4.60713
2.76594
0.911725
94.2168
81.6041
104.271
96.8216
99.4369
97.1723
96.5404
95.0938
89.1427
86.5098
83.886
81.3339
78.8423
76.3948
74.0031
71.6175
69.2707
66.9336
64.6001
62.3283
60.0797
57.8126
55.5848
53.3751
51.179
48.9955
46.7975
44.6223
42.451
40.3005
38.1866
36.0595
33.9403
31.8594
29.8044
27.7589
25.7146
23.6962
21.7233
19.7738
17.8179
15.8597
13.9334
12.0496
10.1736
8.29681
6.45326
4.63138
2.77644
0.914874
120.503
78.5254
97.026
97.9202
102.717
96.1463
96.7546
93.9834
89.0843
86.4601
83.8677
81.3268
78.8547
76.4053
73.9963
71.6134
69.2685
66.9392
64.6025
62.3164
60.0605
57.8095
55.5821
53.383
51.1853
48.9952
46.8039
44.6196
42.4531
40.3128
38.1875
36.0488
33.9337
31.8654
29.8073
27.7533
25.719
23.7067
21.7248
19.7683
17.8099
15.8553
13.9309
12.047
10.169
8.29849
6.45964
4.63073
2.78012
0.923071
87.1663
95.096
100.029
115.598
106.349
98.737
96.1765
93.1154
88.8813
86.325
83.7719
81.2673
78.8177
76.381
73.96
71.6069
69.2557
66.9266
64.6183
62.309
60.0527
57.8053
55.5804
53.3842
51.1852
48.9987
46.8054
44.6162
42.4624
40.3172
38.1801
36.0444
33.9378
31.8721
29.8059
27.7435
25.7204
23.7246
21.7308
19.7572
17.8045
15.8628
13.9452
12.0506
10.1682
8.30058
6.45775
4.61987
2.7789
0.928147
97.051
95.8079
95.2792
100.26
90.6448
97.2757
95.102
91.9472
88.5278
86.127
83.6488
81.1971
78.7638
76.3447
73.95
71.5929
69.2242
66.9016
64.601
62.3145
60.0439
57.797
55.5845
53.3793
51.1874
48.9995
46.8015
44.6144
42.4558
40.3149
38.1666
36.0433
33.9547
31.8759
29.7975
27.7312
25.7147
23.7249
21.7344
19.7575
17.8025
15.8729
13.9598
12.052
10.1637
8.3021
6.45056
4.60909
2.76809
0.928868
98.9709
101.546
94.3357
94.5184
95.2416
95.3454
94.598
90.6473
88.3202
85.9292
83.5295
81.108
78.6879
76.3103
73.9263
71.5622
69.2131
66.8964
64.594
62.3114
60.0434
57.7977
55.5867
53.3675
51.1742
48.9935
46.8026
44.6162
42.4531
40.3153
38.1696
36.0497
33.9698
31.882
29.7851
27.7169
25.7021
23.7195
21.7372
19.7564
17.8034
15.887
13.9773
12.0519
10.1588
8.30548
6.4535
4.59749
2.75335
0.918926
104.799
105.426
111.917
82.6708
93.8189
93.9381
94.2327
90.3413
88.1165
85.8111
83.4526
81.0662
78.6658
76.2836
73.9086
71.5525
69.2061
66.8883
64.594
62.3246
60.0562
57.8086
55.5877
53.3619
51.1601
48.978
46.7986
44.6175
42.4531
40.3186
38.1785
36.063
33.9763
31.8812
29.7787
27.7086
25.6917
23.7101
21.7375
19.7565
17.8044
15.8977
13.9942
12.063
10.1571
8.30096
6.44805
4.58713
2.74773
0.918765
103.744
105.68
101.219
102.959
103.374
92.1842
93.2677
90.6261
87.9426
85.7969
83.4541
81.0735
78.6934
76.301
73.9125
71.559
69.2066
66.9056
64.617
62.3264
60.0611
57.8098
55.5825
53.3634
51.1502
48.961
46.789
44.6214
42.4681
40.3213
38.1952
36.0779
33.9741
31.875
29.7817
27.7151
25.6869
23.694
21.7166
19.755
17.8098
15.9008
13.9964
12.0763
10.164
8.29117
6.43432
4.58403
2.74847
0.918165
100.576
103.338
85.9183
96.1562
113.84
88.9568
93.4676
91.1175
88.2724
85.9692
83.5645
81.1271
78.7121
76.3202
73.9303
71.5572
69.225
66.9272
64.6348
62.326
60.0636
57.8137
55.5728
53.358
51.153
48.9561
46.7768
44.6268
42.4749
40.3286
38.2001
36.0769
33.9544
31.8626
29.7922
27.7307
25.6872
23.6843
21.714
19.7559
17.8185
15.8986
13.9857
12.0764
10.1736
8.28759
6.42842
4.58523
2.75072
0.918081
100.559
98.3935
101.105
102.541
101.939
97.9288
95.8797
92.7272
88.7078
86.2388
83.7163
81.2455
78.771
76.3467
73.9521
71.576
69.2336
66.9273
64.616
62.3303
60.0736
57.8142
55.5778
53.3603
51.1641
48.9666
46.7769
44.6325
42.4705
40.3164
38.1998
36.0713
33.9464
31.857
29.7991
27.7475
25.6937
23.681
21.7149
19.7626
17.8236
15.8879
13.9643
12.0702
10.1816
8.29078
6.42904
4.5924
2.75701
0.913091
108.618
97.1125
99.1667
98.3587
109.163
94.6573
96.6092
94.4997
89.029
86.4268
83.8319
81.298
78.82
76.3732
73.9766
71.5945
69.254
66.9236
64.5988
62.3329
60.0785
57.8133
55.5821
53.365
51.1735
48.9825
46.7872
44.6274
42.4564
40.3074
38.1943
36.0647
33.9489
31.8574
29.8014
27.7569
25.704
23.6853
21.7197
19.774
17.8226
15.8709
13.9456
12.058
10.1785
8.29241
6.43715
4.60702
2.76592
0.911636
113.343
95.1752
98.1325
96.8096
112.358
97.3158
96.553
95.0746
89.1418
86.5099
83.8857
81.3338
78.8423
76.3947
74.0031
71.6174
69.2707
66.9337
64.6
62.3281
60.0798
57.8124
55.5846
53.3751
51.179
48.9955
46.7974
44.6222
42.4509
40.3011
38.1868
36.0593
33.9401
31.8593
29.8044
27.7589
25.7145
23.6961
21.7232
19.7739
17.8178
15.8596
13.9333
12.0495
10.1734
8.29674
6.45327
4.63134
2.77601
0.91483
108.922
72.6824
95.9606
97.5669
99.0486
99.1082
96.7543
93.9974
89.0837
86.4601
83.8675
81.3267
78.8546
76.4052
73.9962
71.6134
69.2684
66.939
64.6024
62.3164
60.0602
57.8094
55.582
53.3829
51.1851
48.9951
46.8038
44.6195
42.4534
40.3129
38.1875
36.0486
33.9337
31.8654
29.8072
27.7531
25.7189
23.7067
21.7247
19.7683
17.8098
15.8551
13.9308
12.0469
10.1689
8.29843
6.45972
4.6306
2.77962
0.923248
88.4012
95.0764
98.2783
98.7579
99.2738
99.4562
96.1936
93.1179
88.881
86.325
83.7718
81.2672
78.8176
76.3809
73.9599
71.6068
69.2559
66.9264
64.6183
62.309
60.0527
57.8052
55.5806
53.3841
51.1851
48.9989
46.8053
44.616
42.4624
40.3171
38.1801
36.0443
33.9378
31.872
29.8059
27.7436
25.7205
23.7244
21.7308
19.757
17.8042
15.8628
13.9451
12.0506
10.1681
8.30052
6.45769
4.61983
2.77887
0.928175
96.5911
96.1052
97.9643
82.5052
90.6149
96.7234
95.1031
91.9468
88.5274
86.1271
83.6487
81.197
78.7637
76.3446
73.95
71.593
69.2241
66.9015
64.6013
62.3145
60.0438
57.7969
55.5845
53.3792
51.1873
48.9994
46.8011
44.6143
42.4561
40.315
38.1665
36.0432
33.955
31.8759
29.7973
27.7313
25.7147
23.7247
21.7343
19.7574
17.8027
15.873
13.9597
12.0518
10.1636
8.30203
6.45046
4.60902
2.76826
0.928777
100.67
100.797
95.3974
95.6226
94.248
95.2194
94.6015
90.6472
88.3202
85.9291
83.5295
81.1078
78.6876
76.3103
73.9262
71.5624
69.213
66.8964
64.5939
62.3114
60.0433
57.7975
55.5866
53.3675
51.1741
48.9934
46.8026
44.6162
42.453
40.3152
38.1695
36.0499
33.9702
31.8819
29.785
27.717
25.7021
23.7194
21.7372
19.7563
17.8034
15.887
13.9773
12.0518
10.1587
8.30543
6.45331
4.59741
2.75337
0.918859
94.0492
94.458
93.2687
94.3533
94.0808
94.3486
93.2901
92.8737
94.7633
92.414
93.8975
92.8806
92.425
92.4072
93.0183
95.474
94.7389
95.5555
92.9686
95.4644
94.7158
96.7765
97.6114
97.0257
97.8742
95.6453
97.6234
98.5586
96.7261
97.0058
96.5097
94.8258
96.8209
97.1418
96.5147
96.6137
96.9964
96.2809
97.1663
96.6139
96.7605
96.2656
97.4429
103.99
97.0515
96.5176
98.3489
98.8213
96.4733
96.2862
95.939
95.2326
101.48
96.2872
95.8353
95.2372
95.2204
95.0085
94.741
96.4573
95.1913
94.6712
94.7451
94.587
94.6855
94.2657
95.3376
94.5888
94.717
94.2737
94.0829
94.3468
93.2916
93.9108
94.0918
94.3432
93.2904
92.8801
91.8032
92.4239
91.086
92.8727
92.7348
92.4164
93.0134
95.406
94.7128
89.2838
92.9623
94.6171
94.7201
95.4289
97.6546
98.7733
97.9168
95.5098
97.9803
98.575
96.7762
97.2287
96.4651
94.8436
96.7089
97.5626
96.5401
96.5691
96.9235
96.3713
97.2829
96.5798
97.6766
96.2489
97.9976
98.8409
96.5124
99.1949
96.0942
99.9357
96.6012
96.2956
95.7092
95.2451
99.69
96.291
96.3189
95.2405
95.2158
94.7736
94.7469
96.742
95.2106
95.6067
94.7502
94.5898
94.5561
94.2967
95.2439
94.5901
94.6003
94.2912
94.078
94.4045
93.2865
94.2204
94.0467
94.3793
93.2668
92.872
93.6642
92.4365
92.9471
92.8653
93.1555
92.4184
93.0166
93.9053
94.82
89.3551
92.9939
96.7228
94.7673
95.4058
98.0152
98.1944
97.7713
96.0805
98.4227
95.6514
96.7425
97.5087
96.4938
110.768
96.7411
105.843
96.5072
96.589
98.0583
96.3216
97.526
96.5744
97.0044
96.2676
95.9608
98.6708
96.6328
99.2806
94.8619
100.652
96.5855
96.3011
98.7267
95.249
100.232
96.2967
97.4374
95.2367
95.2109
95.9902
94.7506
101.714
95.192
95.8695
94.743
94.5919
94.5968
94.2752
96.0401
94.5864
95.1565
94.253
94.7306
99.2028
94.1813
94.2571
94.747
98.4704
94.2753
94.0982
94.2936
93.3662
94.4784
93.36
94.3211
94.2174
92.2709
93.612
92.0821
94.231
92.2789
93.5361
92.0901
95.7241
89.9146
76.1977
101.304
97.9593
89.5945
74.5291
91.4577
93.0212
96.2031
93.9486
92.9922
93.8675
91.4231
91.5823
93.094
91.731
93.2722
91.5777
93.1006
91.7367
114.067
104.836
103.915
111.685
111.515
104.821
98.7301
90.9935
90.7242
88.6535
91.5567
90.944
90.2397
91.0241
92.0142
94.7959
93.6889
93.4739
92.0163
94.7573
93.55
97.5189
99.4637
97.5622
100.664
98.1383
100.43
97.8162
97.6202
96.5841
98.5227
97.9028
96.3521
97.9361
97.9693
94.7501
96.4325
95.9447
95.8863
94.6476
96.4321
95.9797
91.6824
107.593
93.9021
99.8802
97.6703
103.255
90.6383
97.1319
96.5448
98.9199
94.9037
96.5955
91.1541
97.243
96.0678
96.6147
95.9019
96.612
96.0912
96.5855
95.8888
94.1586
102.882
95.6343
99.2237
103.394
105.879
93.9018
96.5156
97.682
100.496
110.909
97.6456
96.5161
96.5506
95.879
96.7552
96.1776
96.558
95.8782
96.7126
96.2084
96.9079
97.1057
98.3348
101.82
95.9852
98.6094
99.0762
96.5983
96.481
99.2711
96.6026
96.429
97.1225
96.8597
96.1148
96.3631
95.1236
96.7632
96.1625
96.3704
95.0249
101.314
90.0908
100.036
108.527
102.859
98.4554
98.2332
96.2398
97.1991
100.432
96.9432
97.2284
97.7263
96.4656
94.466
95.1774
93.3621
96.1922
94.3453
95.1726
93.3645
95.3158
96.5663
95.3837
93.3437
93.8475
94.6728
95.5383
95.0784
95.4261
102.141
96.7449
95.4293
107.571
94.6877
93.1303
94.6981
92.7725
95.1027
93.1353
94.7314
92.7836
95.3163
94.2242
96.8487
94.1258
95.259
92.5541
95.1101
94.8274
94.8302
97.2049
95.2867
94.8061
96.4431
95.018
92.6332
94.5918
92.5315
94.5941
92.6404
94.463
92.5396
95.0781
98.4497
102.368
93.3963
95.1395
98.5958
98.8638
94.0541
94.1902
93.2492
98.1999
94.0579
94.7949
94.1558
92.2785
93.5201
92.0887
94.2296
92.279
93.5193
92.0889
93.9466
90.0822
90.199
104.033
93.6946
78.2191
106.846
91.3542
92.9513
93.6689
101.186
91.4292
93.0243
97.278
91.5739
93.1002
91.7334
93.2723
91.5736
93.0948
91.7341
111.81
101.607
104.524
114.575
133.862
101.845
175.51
91.7237
90.3652
106.977
89.5289
90.6878
90.2386
105.163
92.0129
94.7744
93.5338
93.4649
92.0128
94.7501
93.5337
94.2093
98.4121
97.82
100.823
93.9768
98.397
97.9567
97.6187
96.4273
101.875
98.3319
97.6518
96.4814
101.521
94.6383
96.4511
95.9809
95.8925
94.6371
96.428
95.9881
95.7974
102.434
90.5117
102.407
95.2411
101.788
121.631
98.06
96.7764
104.197
94.7365
97.9227
96.8324
103.526
96.0931
96.6027
95.8853
96.6526
96.0896
96.5962
95.8909
100.258
104.753
95.9037
102.847
110.259
97.8766
99.258
96.4953
97.624
96.7154
97.1853
96.4921
97.6371
96.6813
95.8707
96.7564
96.2057
96.6135
95.8597
96.7209
96.1917
95.8354
97.5481
97.8361
100.139
98.9692
101.912
98.121
96.7134
96.4272
97.611
97.4237
96.4878
96.4465
97.7119
96.1655
96.3662
95.0301
96.7214
96.1727
96.3662
95.02
100.753
95.84
105.5
103.982
100.811
100.154
102.459
96.6437
97.2095
100.756
101.224
96.5722
97.1773
99.1748
94.3294
95.1702
93.3619
96.1948
94.3306
95.1702
93.3614
123.944
94.6941
95.5333
90.5717
105.287
95.229
95.7614
95.2793
95.414
108.144
98.449
94.7846
95.4151
120.292
93.1317
94.7407
92.782
95.1029
93.1319
94.7442
92.7824
95.0936
93.5707
95.3676
94.153
95.0336
95.8816
95.7326
94.9192
94.7893
96.1211
95.3316
94.8899
94.8522
96.0243
92.6382
94.4353
92.5392
94.6043
92.6381
94.4577
92.5392
95.2455
98.5015
98.6192
94.9445
94.9735
99.9331
98.7478
94.0638
94.1368
94.9473
94.5251
94.0651
94.966
94.1416
92.28
93.5321
92.0906
94.3642
92.2715
93.6141
92.0821
94.6571
77.8474
117.523
120.96
95.3594
80.749
118.172
91.5706
92.8741
89.4228
92.048
91.4608
92.8568
92.6026
91.5763
93.0942
91.7377
93.2499
91.5806
93.0864
91.7323
91.153
101.299
67.261
108.245
148.014
118.433
151.583
90.8119
90.1141
102.808
88.4645
90.6073
90.241
107.136
92.0168
94.7874
93.5487
93.4716
92.0149
94.7929
93.6885
98.6208
98.3063
104.159
101.399
109.092
98.6197
99.5008
97.6109
96.5727
99.7562
99.768
97.6052
96.581
99.8523
94.6439
96.4144
95.9822
95.8801
94.7553
96.4593
95.9429
99.5563
100.65
94.2905
96.0873
103.582
102.08
138.28
98.5176
97.1276
103.059
135.457
98.4157
97.2477
104.057
96.0857
96.5825
95.8892
96.6194
96.0676
96.6348
95.9004
109.277
98.3007
98.8499
103.563
96.9681
98.33
99.7822
96.4509
97.7381
98.2529
98.2892
96.4944
97.1264
97.1431
95.862
96.7235
96.1892
96.5703
95.8801
96.8055
96.1773
98.9793
96.2789
97.4338
104.79
101.511
94.7581
98.9415
96.7908
96.4855
98.9373
99.1476
96.3598
96.6559
99.0533
96.1659
96.3708
95.0287
96.7692
96.1172
96.3655
95.1179
100.631
102.424
109.911
100.43
112.413
101.032
105.922
96.7511
97.2715
99.3661
99.9103
96.9728
97.314
99.2479
94.3447
95.1721
93.3636
96.2372
94.4664
95.1759
93.3603
106.613
95.5416
96.011
91.5564
113.064
95.3792
92.9818
94.6627
95.7481
88.1869
96.9741
94.6986
95.4159
79.6764
93.1356
94.7401
92.7841
95.0973
93.1302
94.6969
92.773
95.2763
94.8389
95.6206
105.699
94.7818
96.0897
95.7667
94.9715
94.8802
95.9252
95.2393
95.1469
94.8735
92.9874
92.64
94.458
92.54
94.5805
92.6326
94.5657
92.5323
93.8758
94.0155
93.8779
94.0486
93.8272
93.8757
94.0134
94.1611
95.3118
93.6266
94.3756
95.2615
93.611
94.4636
93.7365
93.5425
93.4946
93.2821
93.4777
93.498
93.7381
94.075
94.5922
94.198
93.2495
93.2659
94.0552
94.2174
93.8814
94.0864
94.0131
93.8826
93.8781
93.8795
94.0156
94.1597
94.3748
95.1167
93.5357
95.2083
93.6637
94.1743
93.7372
93.2869
93.5241
93.4811
93.5003
93.4896
93.7399
92.0113
92.8872
92.3338
92.8822
92.8719
92.338
92.025
89.7671
95.7529
90.8918
92.768
88.7087
90.8559
89.7723
91.629
92.1717
92.2359
92.3969
92.1718
92.1924
91.6524
91.4426
93.989
92.9306
93.7854
92.9865
93.7223
91.4479
92.0118
92.8822
92.8771
92.3338
92.8712
92.3361
92.0098
89.8245
92.2283
97.2477
90.858
88.7308
90.8854
89.9525
91.5995
92.4192
92.1706
92.1607
92.173
92.1595
91.5824
93.1625
92.8525
93.4583
92.9853
92.8385
93.4788
93.307
96.1669
101.527
93.5147
95.469
101.46
93.5059
96.2038
95.5367
95.1836
94.8551
94.7132
94.9591
94.8586
95.5505
90.8985
95.1214
90.6507
84.1825
91.2109
85.1265
90.7704
93.1555
93.0548
92.8484
93.3756
93.0155
93.4755
93.1419
96.2011
95.4623
100.742
93.3948
106.443
93.465
96.0763
95.5203
94.8081
94.9083
94.8351
94.8392
94.8465
95.5077
96.5629
96.0373
96.5231
96.2797
95.9205
96.292
96.6589
97.1596
97.9699
97.2909
97.6186
97.914
97.2937
97.1776
96.6308
96.607
96.9398
99.854
96.1813
96.9212
96.6639
97.6456
97.9002
96.3886
98.0811
96.3546
97.9912
97.6595
96.5755
96.6447
95.9176
96.3084
95.9176
96.3057
96.5773
97.1663
97.5046
99.5915
97.3013
97.6964
97.27
97.2751
96.6305
98.793
96.3231
96.8614
96.9113
96.8967
96.687
96.9551
97.0055
96.9414
96.7166
97.017
96.8912
97.0027
97.4755
97.0721
97.3311
97.0218
96.926
97.3238
97.5007
96.9487
96.697
96.622
96.4947
96.6915
96.6163
97.0103
98.9934
102.245
96.7357
107.427
96.8486
108.303
97.6819
96.9284
96.8359
96.9805
96.8815
97.133
96.9079
96.9197
97.4486
97.0696
97.3249
97.2978
97.9779
97.3916
97.4619
96.9371
96.5317
96.6871
96.5941
96.7726
96.5872
96.9671
96.6304
96.8888
96.2889
96.6007
96.8917
96.2929
96.6615
96.6243
98.771
96.54
97.1567
97.5731
96.538
96.3568
96.6666
96.4967
96.8242
96.2874
96.5135
96.8271
96.611
96.4978
97.1072
97.6365
96.7004
97.6355
96.5698
96.5028
96.6258
96.5713
96.8889
96.2882
96.8926
96.3103
96.6496
96.5203
96.6843
98.4045
96.5798
97.5863
96.5617
96.6913
96.6613
96.2627
96.4853
96.8304
96.5288
96.832
96.6793
96.7462
96.8454
96.9977
98.7681
96.8382
96.533
96.8685
96.5176
104.975
97.6054
116.388
100.423
97.3492
96.4789
96.5835
96.5625
96.9578
96.6395
96.5322
96.9554
96.6365
96.6221
96.5582
96.4214
97.5661
96.4364
97.2943
96.6997
96.7499
98.8185
96.774
96.5478
96.8905
96.5406
96.8384
96.5339
99.2583
99.8532
97.205
99.9453
97.2787
96.6645
96.6148
97.302
96.4639
96.915
96.602
96.9127
96.5986
96.4361
96.9836
95.9746
96.2932
96.9164
95.9658
96.5601
95.319
94.7403
95.3773
95.613
94.8977
95.377
95.3752
95.8085
95.5598
95.4096
95.2358
95.5597
95.4002
95.8416
96.3469
102.075
97.2699
98.2172
97.1762
97.9221
96.4892
96.439
96.2862
96.9414
95.9617
96.9124
95.9654
96.4506
95.4228
95.5925
94.5242
95.3862
95.1004
95.3748
95.386
95.8037
95.2793
95.5602
95.3822
95.5624
95.3844
95.7801
95.0852
95.1181
94.8527
95.2035
95.1141
94.8505
94.883
89.0298
97.0858
94.8828
94.9763
96.7537
94.8413
92.858
94.5488
94.923
94.645
94.7488
94.9271
94.664
95.1083
94.9356
96.1294
95.4501
114.36
95.4256
98.7175
94.6259
94.7117
95.2901
95.1021
94.85
95.1103
94.8546
94.7153
101.341
94.6302
96.7965
94.7283
96.8211
94.6837
101.133
94.4396
94.7464
94.9334
94.7548
94.9291
94.6257
94.6281
94.4678
94.7021
94.4578
94.5928
94.6553
94.4693
94.4668
94.2888
93.2504
94.8679
94.6617
93.2391
94.3178
94.5295
94.3292
94.3142
94.3094
94.227
94.2902
94.3289
94.3068
94.8313
95.2743
94.8136
96.5969
94.837
96.4285
94.8597
94.4736
94.5899
94.7201
94.4754
94.7012
94.4725
94.4597
94.3385
94.7473
94.7666
94.4771
99.3411
94.3489
94.5052
94.3377
94.3402
94.3058
94.3041
94.29
94.3357
94.3309
93.8817
94.012
93.8878
94.0887
93.8818
93.8783
94.0121
94.1527
95.0157
93.5432
94.8236
94.1764
94.9366
93.6329
93.7398
93.539
93.4846
93.2931
93.7395
93.5487
93.488
94.0384
93.9361
94.1394
95.0953
94.9789
94.0259
94.1712
93.886
94.0893
94.0067
93.8961
93.8813
93.8939
94.0083
94.1125
94.3688
94.8012
93.5515
94.8732
93.6504
94.0684
93.741
93.293
93.5421
93.4815
93.5509
93.5
93.7384
91.9794
92.8704
92.3315
92.8773
92.0005
92.8661
92.3308
90.1114
91.6011
90.9674
92.8712
90.1335
91.8269
90.992
91.5816
92.1687
92.1567
92.4139
91.5761
92.1667
92.1648
91.3314
91.8841
92.9959
110.054
93.0133
92.1303
91.8936
91.9701
92.8748
92.8565
92.3293
92.8582
92.3306
91.9719
90.1568
95.0675
90.0469
90.9033
90.0489
90.946
90.2031
91.5693
92.4261
92.1621
92.1496
92.1655
92.1544
91.5731
93.1902
92.8162
93.4733
92.9901
93.1415
92.8972
93.5331
96.5367
106.165
93.3139
95.2166
96.061
94.1418
93.223
95.51
94.9302
94.8433
94.6825
95.504
95.1226
94.8267
90.5254
89.438
89.9746
100.786
90.1339
100.74
90.5198
93.2236
92.9625
92.8076
93.4489
92.8321
93.452
93.2489
96.5737
95.042
98.3915
92.9689
93.7583
93.0957
97.2915
95.5032
94.7386
94.9868
94.8004
95.0124
94.8221
95.4742
96.5829
95.9304
96.3134
95.425
96.5774
95.9358
96.3315
97.2038
98.3566
97.3372
97.6935
97.212
98.4388
97.3478
96.6515
96.4449
96.8804
98.7641
96.671
96.3599
96.848
97.5638
97.8285
96.5868
100.214
96.5454
99.4923
97.5909
96.6135
95.2528
95.9651
96.2233
95.9722
96.4772
96.6124
97.2214
97.8144
98.5637
97.3562
98.1303
97.352
97.2106
96.65
98.7946
96.2054
96.8959
96.4342
96.8938
96.6616
96.9624
97.0358
96.903
96.7157
96.9483
97.005
96.9067
97.5089
97.4467
97.2848
97.3442
97.4673
97.3658
97.3132
96.9379
96.7218
96.5794
96.4707
96.9481
96.7049
96.5941
98.1908
94.9848
97.0128
102.995
96.9211
103.248
98.2969
96.987
96.8113
97.0248
96.9307
97.0155
96.8767
96.9897
97.5423
97.4486
97.4482
97.245
97.3908
97.2575
97.5586
96.9322
96.5278
96.7259
96.6085
96.7028
96.5862
96.9615
96.6229
96.8933
96.2938
96.5609
96.6278
96.9169
96.3056
96.582
99.0334
96.577
97.0298
96.8183
96.8925
96.6003
96.6978
96.5425
96.8262
96.3204
96.7318
96.4812
96.8208
96.4957
97.2189
97.698
96.399
97.6661
96.5573
96.4965
96.6188
96.6012
96.896
96.3041
96.9013
96.2914
96.6127
96.5588
103.07
97.9229
96.6028
97.4489
96.6014
96.6278
96.6922
96.2484
96.4805
96.8103
96.4971
96.8172
96.6831
96.8763
96.7752
96.5608
96.8912
96.8051
96.8231
96.6002
96.7292
99.7178
97.1955
99.3169
96.649
99.5376
97.1806
96.5369
96.4964
96.9268
96.8832
96.5695
96.5018
96.9373
96.9555
103.923
96.5423
100.53
96.5445
101.031
96.6613
96.81
97.355
96.8013
96.6959
96.7989
96.7726
96.8404
96.6376
99.568
98.8128
97.1362
99.3775
97.1571
96.3818
96.5304
96.6403
96.4318
96.9445
96.5807
96.934
96.5501
96.4915
96.9372
95.9641
96.2934
96.4641
96.9441
95.9612
95.2819
94.7492
95.4114
95.4317
95.2891
95.0562
95.5162
95.7969
95.5662
95.3737
95.2275
95.7787
95.5552
95.3949
96.6159
99.947
97.3721
99.8891
97.1378
100.262
96.602
96.5061
96.2872
96.9411
95.9728
96.9427
95.9779
96.5296
95.3154
96.3678
95.0197
95.4989
95.3864
95.4636
95.4072
95.7995
95.2473
95.5773
95.4089
95.5848
95.4172
95.7985
94.668
95.1206
94.8486
95.2149
94.6873
95.1042
94.8457
99.3988
97.0019
94.8223
94.9473
98.0044
98.6336
94.7239
95.2757
94.9353
94.6365
94.7495
94.5672
94.9334
94.6846
94.466
96.6407
95.4183
125.244
95.4312
98.9831
94.8392
94.6298
95.1972
95.1317
94.8274
95.119
94.8421
94.5829
99.2003
95.4571
99.1915
94.6494
98.7898
94.6753
99.2627
94.992
94.7505
94.9318
94.682
94.9306
94.6695
95.2023
94.4446
94.6022
94.4771
94.5887
94.4505
94.5856
94.4789
94.3625
95.0521
94.4739
94.5764
94.4786
94.9602
94.4884
94.3598
94.3185
94.3016
94.2929
94.3543
94.3233
94.314
95.0616
95.2992
94.9352
95.8137
94.8973
96.2483
95.1614
94.4341
94.5886
94.6277
94.4792
94.5986
94.4796
94.439
94.3349
94.5939
95.0995
94.4867
94.9258
94.335
94.4846
94.3555
94.2858
94.3212
94.3051
94.3227
94.3604
94.3039
93.8932
94.0064
93.8891
94.0531
93.8947
93.8824
94.003
94.0059
94.7555
93.7753
94.4676
94.0307
94.7148
93.7378
93.7375
93.5138
93.4782
93.2834
93.7391
93.5213
93.4748
94.0863
94.5273
94.1336
95.6474
96.4298
94.0936
94.1304
93.8872
94.0351
94.0041
93.8826
93.8213
93.9038
94.0015
94.0571
94.5059
97.1976
93.6643
94.6828
93.6923
94.0857
93.7366
93.279
93.5279
93.494
93.5369
93.4767
93.7369
91.9778
92.874
92.3281
92.8737
91.97
92.8591
92.3275
90.4247
89.9152
90.909
94.1405
90.4413
89.8775
90.9482
91.5863
92.162
92.1567
92.4167
91.5796
92.1597
92.1734
91.4728
94.3979
92.9581
91.9838
92.8895
91.492
91.4685
91.9847
92.8766
92.854
92.3232
92.8545
92.3299
91.9866
90.7055
92.6558
94.3645
90.9952
90.0781
90.9259
90.4466
91.6356
92.416
92.1603
92.2385
92.1601
92.1801
91.5935
93.3102
92.8591
93.5787
92.9576
93.2647
92.8476
93.4045
99.6144
95.2487
92.8666
96.676
97.6244
98.056
92.8131
95.5653
95.1901
94.7994
94.7134
95.4293
95.2464
94.7883
90.6789
89.4999
90.3237
94.8881
90.2287
95.721
90.6815
93.2726
92.9598
92.8641
93.3769
92.8418
93.3802
93.2879
97.3473
96.5567
104.275
92.8014
106.889
92.7867
97.9302
95.645
94.7152
95.3593
94.7971
95.2023
94.7859
95.6012
96.6324
95.9805
96.2227
95.6662
96.6515
95.982
96.2279
97.2324
98.7175
97.3424
98.1676
97.1999
98.3824
97.3661
96.6412
96.2073
96.9376
96.3063
96.6495
96.2069
96.9002
97.6319
97.6235
96.6173
99.3199
96.5893
99.1458
97.8168
96.6537
95.8869
95.9981
96.5118
95.9901
96.2366
96.6827
97.0559
98.2034
98.3643
97.2964
97.9517
97.316
97.2133
96.722
96.8927
96.4666
96.9388
96.211
96.8977
96.6835
97.0033
97.0301
96.9139
96.7238
97.0152
97.0278
96.909
97.6326
97.5516
97.2336
97.4403
97.5711
99.904
97.3069
97.0257
96.7298
96.6526
96.5405
96.9552
96.7033
96.6293
98.5625
107.454
97.565
103.003
97.428
104.049
98.6012
97.0081
96.7205
97.0392
96.9072
97.0511
96.9007
97.1188
97.7252
112.305
98.6946
97.5426
97.844
97.7266
97.6366
97.0561
96.5121
96.6702
96.6368
96.6721
96.6375
97.0131
96.603
96.886
96.3005
96.5945
96.6047
96.8793
96.2909
96.5667
97.932
96.6539
97.5521
96.6093
97.3292
96.605
96.6867
96.4849
96.8142
96.2908
96.6842
96.4902
96.7977
96.451
100.447
97.1726
96.5491
97.1285
95.0326
96.5614
96.5963
96.573
96.8955
96.3055
96.8766
96.301
96.6002
96.561
97.0188
96.7474
96.6114
96.476
96.5833
96.5927
96.6899
96.2637
96.4853
96.7877
96.4852
96.7907
96.7838
96.817
96.8098
96.6174
95.0309
96.8182
96.8138
96.594
96.3306
98.5709
97.159
98.9951
96.2073
98.7335
97.1623
96.5487
96.4525
96.9431
96.585
96.5837
96.5497
96.9372
96.8522
99.3949
96.62
99.2034
96.6108
99.2568
96.9801
96.829
95.7426
96.8278
96.9865
96.8289
96.5868
96.971
96.4176
98.8584
98.7427
98.0072
98.1026
97.1078
96.4494
96.5245
96.3998
96.4835
96.9642
96.4308
96.9351
96.6657
96.5323
96.9411
95.982
96.3078
96.5366
96.9397
95.9763
95.5587
96.519
95.5066
102.245
95.4988
95.578
95.5471
95.8237
95.5708
95.4207
95.2365
95.8059
95.5765
95.4433
96.7253
99.8027
97.2324
100.268
97.1962
100.075
96.6765
96.5187
96.294
96.9436