/*--------------------------------*- C++ -*----------------------------------*\
| =========                 |                                                 |
| \\      /  F ield         | OpenFOAM: The Open Source CFD Toolbox           |
|  \\    /   O peration     | Version:  5.0                                   |
|   \\  /    A nd           | Web:      www.OpenFOAM.org                      |
|    \\/     M anipulation  |                                                 |
\*---------------------------------------------------------------------------*/
FoamFile
{
    version     2.0;
    format      ascii;
    class       surfaceScalarField;
    location    "3.9";
    object      phi;
}
// * * * * * * * * * * * * * * * * * * * * * * * * * * * * * * * * * * * * * //

dimensions      [0 3 -1 0 0 0 0];

internalField   nonuniform List<scalar> 
24280
(
-5.31548e-10
2.78884e-09
7.7469e-09
4.95646e-09
-1.2562e-08
3.65864e-09
1.39185e-09
-8.65574e-10
-1.35424e-09
5.17927e-10
-1.302e-09
4.95092e-09
-4.70793e-09
3.56305e-09
-2.81244e-10
2.02684e-09
-5.62667e-09
1.42908e-09
3.37558e-09
2.54593e-09
-6.55847e-09
-2.07e-10
2.8517e-11
2.01316e-10
9.7633e-11
-1.42249e-10
-1.65207e-13
1.00481e-10
4.76998e-11
1.38273e-09
9.52854e-13
-2.77093e-11
-2.43346e-10
-2.49896e-10
-4.10412e-10
-4.24265e-10
-3.75238e-12
6.92226e-13
-6.90059e-12
1.36885e-09
2.65785e-11
-2.1047e-12
1.37502e-09
5.6293e-13
8.90817e-14
1.37753e-09
8.07026e-13
4.24648e-14
1.38071e-09
-2.37297e-13
-8.07532e-14
1.38349e-09
-8.50155e-13
1.79481e-13
1.38325e-09
-5.96735e-13
-4.50934e-13
1.38377e-09
-2.09415e-13
9.45537e-14
1.38479e-09
-6.7524e-13
5.06572e-13
1.38525e-09
-3.05617e-15
-1.93728e-14
1.38455e-09
-3.12647e-13
-5.40414e-13
1.38436e-09
-6.31941e-13
-6.16097e-16
1.38537e-09
2.48452e-13
1.6989e-12
1.38548e-09
2.35693e-13
8.63449e-13
1.38569e-09
-2.97446e-13
3.15928e-13
1.38539e-09
1.9486e-14
3.28745e-13
1.38544e-09
-3.17961e-13
4.43492e-14
1.38551e-09
2.91161e-13
-1.81149e-13
1.38579e-09
5.50768e-13
-8.81726e-13
1.38589e-09
2.05813e-13
-3.2161e-13
1.38613e-09
-1.38248e-13
-3.72774e-14
1.38539e-09
2.43105e-12
-3.65205e-12
1.38571e-09
1.06813e-13
2.13734e-13
1.38495e-09
-1.15191e-12
3.89253e-12
1.38538e-09
-1.0195e-12
2.85815e-12
1.38524e-09
-3.64188e-13
1.71077e-13
1.38581e-09
9.18748e-14
-3.77299e-13
1.38567e-09
4.24364e-14
-4.33492e-13
1.38539e-09
1.25132e-14
6.30572e-13
1.38481e-09
4.98779e-13
3.28619e-13
1.3846e-09
7.95242e-13
-7.46047e-13
1.38677e-09
-3.72287e-12
1.02951e-12
1.38587e-09
5.10348e-13
1.5915e-13
1.38571e-09
1.30549e-13
2.27657e-14
1.38567e-09
6.34794e-14
-3.38084e-13
1.38639e-09
-2.12153e-13
3.1815e-12
1.38549e-09
2.64316e-12
-1.22742e-12
1.38532e-09
-3.14539e-13
-3.81935e-15
1.38517e-09
3.0099e-13
-1.38899e-13
1.38626e-09
-9.4204e-13
-3.57858e-14
1.38591e-09
2.13516e-13
1.42436e-13
1.38532e-09
-4.57519e-13
8.33604e-13
1.30945e-12
-1.18509e-12
-6.91479e-10
8.0083e-09
-6.85603e-09
1.12801e-09
3.37214e-09
-7.82897e-10
-5.37402e-09
2.69144e-09
1.78051e-09
2.10895e-10
-1.54876e-10
6.58747e-10
2.35699e-09
5.56178e-09
5.47806e-08
3.8817e-08
-1.20646e-07
1.86373e-08
-7.31334e-09
-1.99002e-09
2.59246e-09
2.78184e-09
-8.32082e-09
6.66532e-08
1.24001e-07
-1.78404e-07
1.32435e-09
-2.60625e-10
-1.63393e-09
2.40088e-09
-1.83067e-09
7.98805e-11
-5.79903e-11
5.29217e-11
-1.66319e-10
9.1505e-11
-9.49278e-11
1.28941e-12
-7.35624e-13
1.37157e-12
9.30024e-11
-1.73842e-10
1.83663e-10
-6.4159e-12
-2.45553e-12
1.34618e-09
-2.81598e-11
-2.06567e-11
-2.34811e-10
-2.41206e-10
-3.91759e-10
-4.03021e-10
1.36558e-09
-1.70248e-11
-1.83712e-12
1.37487e-09
-9.04178e-12
5.32677e-13
1.37982e-09
-5.2231e-12
2.42449e-14
1.38224e-09
-3.08317e-12
-2.09379e-13
1.3836e-09
-1.95706e-12
-7.86439e-15
1.38455e-09
-1.16776e-12
-5.82976e-15
1.38427e-09
-1.52881e-13
-2.39896e-13
1.38482e-09
-5.6265e-14
-4.89106e-13
1.38499e-09
-9.85374e-13
5.05233e-13
1.38523e-09
-8.02525e-13
-6.01725e-14
1.38533e-09
9.25594e-14
6.28859e-14
1.38529e-09
3.19228e-13
-3.60139e-14
1.3847e-09
1.66377e-13
1.33871e-13
1.38571e-09
9.94867e-13
-1.97907e-12
1.386e-09
7.9561e-13
-1.40043e-12
1.38582e-09
4.24812e-14
4.34979e-13
1.38516e-09
-1.37211e-13
1.3552e-12
1.38565e-09
-9.60217e-13
6.81942e-13
1.38551e-09
4.46484e-14
-3.51656e-14
1.38578e-09
-6.423e-13
2.82106e-12
1.38436e-09
9.06591e-13
6.29782e-13
1.3851e-09
7.65773e-14
-1.96613e-12
1.38531e-09
4.96617e-13
-1.70747e-12
1.38622e-09
-3.27832e-12
2.01434e-12
1.38639e-09
-2.38664e-12
2.31848e-12
1.38566e-09
7.9891e-13
-2.3673e-14
1.38584e-09
-1.01684e-13
-5.64154e-14
1.38622e-09
1.55811e-13
-3.28143e-14
1.3864e-09
1.2634e-13
4.96692e-13
1.38445e-09
-1.02553e-12
-7.45706e-13
1.38509e-09
4.37877e-13
-5.53591e-13
1.38525e-09
-3.42973e-14
4.63547e-16
1.3852e-09
-6.60959e-15
1.30671e-13
1.38509e-09
-2.5721e-13
1.57595e-13
1.38622e-09
3.91084e-13
1.11604e-12
1.38589e-09
6.14492e-14
-4.59084e-14
1.38592e-09
1.39342e-13
1.36368e-13
1.38557e-09
-1.60205e-12
1.01446e-12
1.3854e-09
4.14939e-13
-3.17167e-14
1.38572e-09
1.69491e-13
-9.46283e-13
-1.69398e-13
1.22903e-12
5.22369e-10
2.77455e-09
6.10081e-09
-9.43667e-10
-2.80769e-09
-4.96614e-08
-1.22321e-11
1.30165e-09
-2.12527e-09
-1.74125e-09
1.35777e-09
-5.04202e-10
1.17855e-09
5.90169e-08
-1.69509e-08
1.24107e-08
-3.78118e-10
8.09475e-09
5.17397e-09
-1.38341e-08
-3.02692e-09
-2.27955e-09
1.88015e-09
2.04455e-09
1.38176e-09
4.76146e-10
2.0029e-09
-6.31895e-09
-9.99597e-10
4.83953e-09
-3.54108e-10
-2.06143e-09
1.14223e-09
4.56153e-10
8.17161e-10
-8.14928e-11
2.06934e-11
-5.52667e-11
3.07606e-11
8.53058e-11
-3.50074e-11
2.02286e-10
2.29249e-12
-3.5524e-11
-6.49831e-11
-6.58113e-11
1.34213e-11
-3.09468e-12
-5.32086e-12
-5.11267e-12
-3.14171e-12
1.37601e-09
-3.52891e-11
-2.63957e-11
-2.48674e-10
-2.51709e-10
-4.13728e-10
-4.28378e-10
1.38071e-09
-1.96417e-11
-2.07361e-12
1.38234e-09
-1.10384e-11
3.50816e-13
1.38367e-09
-6.48931e-12
-8.59641e-14
1.38449e-09
-3.93164e-12
1.59003e-14
1.38486e-09
-2.32705e-12
-4.36569e-15
1.38502e-09
-1.35664e-12
1.74148e-14
1.3857e-09
-8.65519e-13
3.80483e-14
1.38579e-09
-7.98613e-13
6.55905e-13
1.38549e-09
5.40837e-15
-6.87789e-13
1.38445e-09
3.39714e-13
-8.84549e-14
1.38499e-09
-3.8161e-13
-5.76465e-14
1.38551e-09
1.40931e-13
-3.36983e-13
1.38579e-09
-4.04996e-14
-6.15578e-14
1.38541e-09
-4.11089e-13
1.78921e-12
1.38488e-09
-7.46338e-14
1.39762e-12
1.38524e-09
-2.37493e-13
-7.45079e-14
1.38544e-09
-2.20278e-13
-1.03768e-13
1.38485e-09
5.84924e-14
-4.24081e-13
1.38471e-09
-1.3364e-14
2.06982e-13
1.38489e-09
5.54786e-13
-1.36036e-12
1.38676e-09
1.27802e-12
-2.2368e-12
1.38624e-09
5.83327e-13
2.42828e-14
1.38698e-09
7.98246e-13
-1.03038e-12
1.38543e-09
2.46279e-13
-1.96651e-12
1.38515e-09
4.01348e-13
-2.49259e-12
1.38564e-09
1.74908e-14
2.92892e-13
1.38568e-09
-1.98641e-13
6.37695e-14
1.38586e-09
-2.58068e-14
8.4624e-15
1.38574e-09
-4.75322e-14
3.06405e-13
1.3854e-09
-3.25025e-13
-3.61951e-13
1.38507e-09
1.033e-12
-2.59563e-13
1.38509e-09
-3.94067e-14
-3.14235e-15
1.38511e-09
2.25926e-13
-2.58441e-13
1.38565e-09
-1.95943e-12
1.16674e-12
1.38631e-09
5.93846e-13
-8.57214e-13
1.38604e-09
-2.28424e-14
3.54668e-13
1.38604e-09
1.49325e-15
1.36096e-13
1.38538e-09
-7.63453e-14
-8.62094e-13
1.38526e-09
5.82071e-13
-4.70125e-14
1.38511e-09
2.56493e-13
6.33452e-14
-1.55248e-12
6.92086e-13
3.99815e-09
-1.51301e-10
-1.72358e-10
4.4509e-10
-2.21123e-10
2.65545e-10
-2.50317e-09
2.48596e-09
7.37324e-09
-2.80032e-09
-3.22473e-09
-5.57858e-09
1.72628e-09
1.79028e-09
1.92222e-09
-4.83502e-09
-2.99988e-09
4.40323e-09
9.28714e-10
4.64105e-09
2.77411e-09
-5.12176e-09
2.12245e-09
3.64393e-09
6.12211e-09
1.42394e-09
2.44775e-09
4.23587e-09
2.84223e-09
-3.13832e-09
2.65034e-09
-3.78229e-09
2.93302e-10
-2.73395e-09
-2.76202e-09
-6.04382e-09
2.01332e-08
-1.82043e-08
-1.15448e-08
-2.21875e-09
1.77951e-09
-1.26211e-09
2.29762e-09
2.40131e-09
9.64481e-10
6.78961e-10
6.92662e-11
5.90567e-10
-1.43329e-10
2.5714e-10
-7.73644e-10
-1.5699e-10
9.55974e-12
-7.30855e-11
-2.11802e-10
-1.1863e-10
-1.42475e-10
-1.10395e-10
4.29898e-11
3.65668e-11
1.57022e-11
1.24699e-10
2.20574e-10
2.50963e-10
1.12319e-10
-5.98306e-11
3.40919e-12
-2.45335e-12
2.87908e-11
3.00838e-11
1.40285e-09
-1.51009e-11
-2.86199e-11
-2.60662e-10
-2.60219e-10
-4.3908e-10
-4.34445e-10
1.39492e-09
-9.5306e-12
-2.15201e-12
1.39019e-09
-6.64985e-12
3.40346e-13
1.38786e-09
-4.13961e-12
-3.46925e-14
1.38685e-09
-2.95662e-12
3.38427e-14
1.38628e-09
-1.76731e-12
7.66565e-15
1.38582e-09
-8.76546e-13
-2.30039e-14
1.38543e-09
-4.59196e-13
-1.96777e-14
1.38532e-09
-4.87457e-13
-1.87566e-13
1.38536e-09
-1.92318e-13
1.6284e-13
1.38575e-09
5.13064e-14
-9.71077e-14
1.38564e-09
-2.78957e-13
2.06755e-14
1.3856e-09
-2.43563e-13
4.27132e-13
1.38566e-09
-1.18241e-13
2.55313e-14
1.38552e-09
-2.22917e-13
-4.36498e-14
1.38556e-09
-4.17179e-14
-6.92721e-14
1.38532e-09
-8.47171e-14
9.25814e-14
1.38529e-09
-1.12425e-13
-7.04248e-14
1.38535e-09
-3.36003e-14
3.83323e-14
1.38557e-09
8.30713e-13
-1.05759e-12
1.38626e-09
1.33975e-12
-1.46096e-12
1.38557e-09
3.54264e-13
1.6255e-12
1.38575e-09
4.85604e-13
-7.58352e-14
1.38572e-09
-1.17772e-12
2.01899e-12
1.38495e-09
1.89231e-12
-8.67182e-13
1.38538e-09
-1.36816e-13
1.14448e-13
1.38568e-09
2.6101e-13
-5.37585e-13
1.38562e-09
-1.39478e-13
9.63606e-15
1.3858e-09
-1.16228e-13
-7.66279e-14
1.38585e-09
2.33566e-13
-3.23965e-13
1.38555e-09
-5.08216e-13
4.8347e-13
1.38522e-09
1.5021e-12
-1.35736e-13
1.38533e-09
-3.18523e-14
-1.13405e-13
1.38639e-09
6.55364e-13
-1.48413e-12
1.38526e-09
2.43379e-13
-1.07322e-12
1.38564e-09
-2.08334e-12
2.29811e-12
1.38584e-09
1.78488e-13
-3.95369e-13
1.38604e-09
-8.36168e-15
-1.93869e-13
1.38594e-09
1.43759e-12
-1.40966e-12
1.38478e-09
1.71113e-12
3.42455e-14
1.38505e-09
-7.31054e-15
-3.22369e-15
-1.91535e-12
5.13165e-13
-2.2317e-09
-2.40934e-10
2.51242e-09
-3.70254e-09
1.56233e-09
6.80745e-10
3.94556e-09
2.93208e-10
3.18454e-10
-1.36327e-10
-4.8921e-10
1.38708e-11
3.62437e-10
8.3831e-10
3.84697e-10
3.78127e-10
6.28805e-11
-1.63725e-10
9.11358e-10
1.18694e-09
6.71645e-10
4.95036e-10
-2.33042e-10
-3.3653e-10
-8.29201e-10
8.57724e-10
1.23418e-08
-1.25733e-08
-1.72577e-09
1.43819e-10
3.07961e-10
-2.23366e-10
1.75407e-10
-7.89013e-10
5.29013e-10
-1.22792e-10
-1.41856e-10
2.29646e-10
-8.09375e-12
-4.19357e-11
-7.52554e-11
-1.42923e-10
1.99706e-11
8.5321e-11
1.29095e-10
6.88263e-11
-1.5951e-10
9.71677e-12
-6.72843e-12
1.04394e-10
5.21278e-11
1.40585e-09
-2.12511e-12
-2.83784e-11
-2.62364e-10
-2.58613e-10
-4.37541e-10
-4.31905e-10
1.39824e-09
-1.89068e-13
-1.69993e-12
1.39312e-09
-1.84551e-12
3.23956e-13
1.38952e-09
-5.97628e-13
6.40434e-14
1.38883e-09
-3.14403e-12
8.77379e-13
1.38801e-09
-9.23022e-13
-2.90702e-14
1.38649e-09
1.37965e-12
-7.32068e-13
1.38555e-09
1.44274e-12
-9.60454e-13
1.38556e-09
-5.11704e-13
1.79641e-14
1.38545e-09
-7.3604e-14
-6.13583e-15
1.38515e-09
1.27676e-13
2.35031e-13
1.38556e-09
1.23484e-13
-8.10065e-13
1.38555e-09
-2.11387e-13
-1.80156e-14
1.38576e-09
1.44459e-13
-4.68866e-13
1.38558e-09
-1.49708e-13
1.16635e-13
1.38567e-09
-1.1925e-13
-6.9855e-15
1.38577e-09
-1.77608e-13
-4.32248e-15
1.38586e-09
-2.55168e-13
5.87338e-14
1.38592e-09
-5.92477e-14
-2.1386e-14
1.38574e-09
1.08582e-13
9.09488e-13
1.38516e-09
2.10558e-13
1.7188e-12
1.3852e-09
4.70078e-13
-1.51139e-13
1.3858e-09
1.34982e-13
-2.3706e-13
1.38476e-09
-6.14043e-13
4.91789e-13
1.38572e-09
2.2171e-13
7.19061e-13
1.38564e-09
-3.49067e-14
-1.63254e-14
1.38567e-09
1.09664e-14
2.32553e-13
1.38556e-09
1.01621e-14
-3.5052e-14
1.38537e-09
8.06404e-13
-7.24566e-13
1.38515e-09
5.08205e-13
-4.48601e-14
1.38522e-09
-3.07089e-13
-2.64165e-13
1.38614e-09
4.0299e-15
5.80971e-13
1.38621e-09
-4.1633e-13
3.13697e-13
1.38554e-09
-3.69857e-14
1.37105e-12
1.38585e-09
1.19073e-14
-7.92023e-14
1.38519e-09
-1.0509e-13
-1.3171e-12
1.3858e-09
-2.82225e-13
-1.4456e-13
1.38621e-09
-4.91099e-13
7.55687e-14
1.38626e-09
-1.36138e-12
2.74962e-12
1.38479e-09
3.47603e-12
-3.01938e-13
1.3851e-09
-8.92708e-13
5.77827e-13
-2.30125e-13
-8.49466e-13
-5.80588e-09
-4.1945e-09
-3.51218e-09
1.01836e-08
-6.11137e-08
-1.30318e-08
7.76463e-08
1.21866e-09
3.71685e-09
1.36779e-09
-3.44416e-09
-2.85915e-09
-1.51923e-10
-1.07902e-09
3.64113e-10
-1.30908e-09
6.66818e-10
-9.83459e-10
9.90308e-10
1.50225e-09
1.38768e-10
-7.62808e-10
-5.49642e-10
1.59242e-09
-4.18743e-10
-1.20411e-09
-1.85779e-09
-1.71877e-09
3.26966e-08
-2.23739e-08
2.45801e-08
-2.59061e-08
-2.21334e-10
-3.30806e-10
-4.28839e-11
-3.23459e-10
-6.2334e-10
-1.42658e-09
-1.24554e-09
1.43644e-10
9.9266e-10
4.35088e-10
4.70669e-10
-2.04206e-09
-5.86845e-11
-2.1831e-10
1.25501e-10
-3.17711e-11
-4.10857e-12
-1.31984e-10
4.70341e-13
1.69487e-11
1.14627e-10
1.06159e-10
8.1152e-11
-1.35403e-10
-1.65977e-12
2.58806e-12
7.29464e-11
6.15283e-11
1.40022e-09
4.74247e-12
-2.90843e-11
-2.57609e-10
-2.58354e-10
-4.3068e-10
-4.31339e-10
1.39734e-09
4.8222e-12
-2.10126e-12
1.39304e-09
2.14906e-12
3.21113e-13
1.3911e-09
1.5634e-12
-2.10587e-13
1.3881e-09
7.66133e-13
-9.04795e-13
1.38659e-09
5.87939e-13
-3.99787e-15
1.38664e-09
5.78194e-13
7.44442e-13
1.38668e-09
4.45351e-13
9.60054e-13
1.38597e-09
1.83402e-13
1.12584e-14
1.386e-09
-1.95232e-13
9.58864e-14
1.386e-09
2.45093e-13
-1.09248e-13
1.38478e-09
4.46274e-13
9.02068e-13
1.38625e-09
1.39675e-12
-3.07299e-12
1.38565e-09
2.56455e-13
4.96031e-13
1.38572e-09
-6.97616e-13
4.83325e-13
1.38547e-09
3.45662e-13
-2.12444e-13
1.38543e-09
-7.32145e-14
-5.82374e-14
1.38588e-09
6.62879e-13
-1.36212e-12
1.38594e-09
-1.38843e-13
2.84726e-14
1.38597e-09
1.42085e-13
-5.21991e-14
1.38607e-09
2.71918e-13
-1.53018e-13
1.3846e-09
5.01006e-12
-3.05742e-12
1.38451e-09
-1.11799e-12
1.34839e-12
1.38569e-09
-3.31202e-13
-1.44363e-12
1.38568e-09
1.74997e-13
6.39203e-14
1.38566e-09
2.29397e-13
-2.41255e-13
1.38541e-09
8.83484e-13
-6.04864e-13
1.3854e-09
2.28106e-14
1.79529e-15
1.38556e-09
-2.57585e-13
9.09482e-13
1.38546e-09
2.44393e-13
3.68295e-13
1.38539e-09
-7.12851e-13
4.81736e-13
1.38577e-09
-6.12522e-13
2.40346e-13
1.38599e-09
-4.90579e-13
-1.37563e-13
1.38565e-09
1.1167e-13
1.90509e-13
1.38554e-09
1.42256e-13
-2.02477e-14
1.38539e-09
1.92367e-13
-1.46499e-13
1.38513e-09
-5.59584e-14
3.53949e-14
1.38488e-09
-1.38253e-13
-9.6712e-14
1.38479e-09
1.33961e-12
-2.61108e-12
1.38676e-09
1.1555e-12
3.53877e-13
1.38646e-09
-4.28086e-13
-1.65452e-13
-7.0122e-13
1.58637e-12
-1.0711e-08
1.56161e-09
1.12673e-08
-1.92689e-09
-2.39338e-09
3.10471e-09
-2.69769e-09
-1.44081e-09
3.42718e-09
-5.34894e-09
1.31365e-08
-4.82573e-10
-5.99321e-09
1.29745e-10
-1.05544e-10
-7.78242e-10
-5.57744e-10
-7.51846e-10
1.00307e-08
-5.54978e-09
1.30172e-09
-5.03084e-09
5.40914e-10
2.87047e-10
9.66824e-10
8.56822e-11
-1.88047e-09
1.03597e-10
-1.30557e-09
-2.85593e-10
-1.18125e-10
1.60569e-09
-2.05656e-10
-3.40506e-10
6.72685e-10
-6.07132e-10
-3.15752e-10
5.92145e-10
-3.03853e-10
1.39695e-10
1.21313e-10
1.16373e-10
1.30684e-10
-1.50556e-10
-9.47946e-12
6.96858e-12
1.13057e-10
4.00096e-11
1.40068e-09
1.3638e-11
-2.86299e-11
-2.60664e-10
-2.5739e-10
-4.33507e-10
-4.29368e-10
1.39656e-09
1.03293e-11
-1.35641e-12
1.39207e-09
6.30899e-12
3.45839e-13
1.38959e-09
4.12613e-12
-8.61318e-14
1.38788e-09
2.48239e-12
-3.31616e-15
1.38689e-09
1.56933e-12
3.36055e-15
1.38631e-09
1.03003e-12
1.29755e-13
1.3861e-09
6.37434e-13
1.15376e-14
1.38598e-09
2.97724e-13
1.12696e-14
1.38557e-09
-9.81042e-15
2.1968e-13
1.38613e-09
-1.70375e-13
-1.35956e-13
1.3865e-09
-2.60073e-13
3.4094e-13
1.38512e-09
-2.86981e-13
3.07342e-12
1.38553e-09
-5.19974e-14
-1.02226e-13
1.38538e-09
7.0127e-14
-6.06559e-13
1.38559e-09
-4.95083e-14
1.8216e-13
1.38554e-09
6.92642e-14
-7.70174e-14
1.38517e-09
-2.92252e-13
1.32896e-12
1.38536e-09
-2.58594e-13
-6.24334e-14
1.38578e-09
-2.9661e-13
2.8917e-14
1.38406e-09
4.65975e-12
-2.65872e-12
1.38552e-09
6.78261e-13
2.88193e-12
1.38595e-09
-3.799e-13
-1.15637e-12
1.38573e-09
1.63421e-14
-1.18581e-13
1.38569e-09
1.31438e-13
9.07524e-14
1.38565e-09
-9.79641e-15
2.87506e-13
1.38585e-09
6.87776e-15
6.93404e-13
1.38592e-09
-9.80325e-15
-3.73357e-14
1.38601e-09
-2.0372e-13
-1.35267e-13
1.38498e-09
1.88626e-12
-6.04009e-13
1.38487e-09
-5.60851e-14
-5.43174e-13
1.38618e-09
9.35186e-13
-2.84568e-12
1.38564e-09
3.25666e-14
1.38619e-14
1.3859e-09
-1.75394e-13
3.14483e-14
1.38531e-09
6.14873e-13
1.21045e-13
1.38528e-09
2.22868e-13
-2.93578e-15
1.38521e-09
-2.25981e-13
2.48399e-13
1.38498e-09
7.60535e-14
1.23015e-14
1.3854e-09
-7.84634e-13
1.70301e-12
1.38582e-09
6.78099e-13
6.44574e-14
1.38605e-09
-1.15552e-13
-5.51043e-13
-3.06206e-13
-9.94523e-13
7.58204e-09
1.70077e-09
-1.64597e-08
2.67043e-09
1.17963e-09
1.5569e-09
1.96093e-09
1.13147e-09
-1.15785e-10
3.22759e-10
-4.11341e-09
9.61841e-10
1.13017e-09
7.23433e-10
-4.04903e-11
-1.66591e-10
1.66718e-09
2.7442e-09
4.4103e-09
-1.82498e-10
2.89235e-10
-1.04128e-10
-2.4098e-09
-2.5e-09
-2.05625e-09
-1.69169e-09
4.30178e-10
3.45537e-10
7.55485e-10
-1.28863e-09
-2.42595e-10
2.03873e-09
4.38006e-09
-1.71778e-09
3.42995e-10
5.43687e-10
7.06422e-10
1.04347e-09
1.43929e-08
3.20549e-10
-5.05907e-08
2.85854e-08
-1.32281e-09
-1.31959e-09
2.5998e-09
2.45068e-10
4.30391e-09
-2.08677e-09
-4.98055e-12
-2.45723e-09
-1.30973e-11
-8.10293e-11
7.19229e-11
-8.888e-11
1.11084e-10
-3.7407e-11
-6.97898e-13
1.35934e-12
8.81627e-12
2.79294e-11
1.39534e-09
2.50255e-11
-3.1343e-11
-2.57146e-10
-2.55702e-10
-4.34604e-10
-4.27924e-10
1.39177e-09
1.5616e-11
-1.71968e-12
1.38878e-09
9.1144e-12
1.99822e-13
1.38735e-09
5.66492e-12
-1.04324e-13
1.38636e-09
3.4677e-12
-3.69631e-15
1.38588e-09
2.06654e-12
-1.68096e-14
1.38589e-09
1.35015e-12
-3.3865e-13
1.38564e-09
8.72666e-13
5.43439e-15
1.38543e-09
1.7806e-14
4.95137e-13
1.38555e-09
-4.12554e-13
2.79248e-13
1.3861e-09
-2.27455e-12
1.56689e-12
1.38591e-09
-2.3e-13
1.59901e-13
1.3856e-09
7.61286e-14
-4.65508e-14
1.38564e-09
3.16673e-13
-4.02996e-13
1.38548e-09
-4.5471e-13
6.90342e-13
1.38555e-09
-1.32258e-13
1.585e-14
1.38539e-09
5.71807e-14
1.86719e-13
1.38521e-09
-5.08326e-13
4.02335e-13
1.38495e-09
8.66214e-14
-7.71748e-14
1.38434e-09
8.3857e-13
-5.20084e-13
1.38561e-09
6.60532e-13
2.73878e-12
1.38568e-09
8.70338e-13
-2.46701e-13
1.38641e-09
-3.41548e-12
2.31044e-12
1.38612e-09
3.83324e-13
-6.95126e-14
1.38553e-09
9.70595e-13
-2.30232e-13
1.38545e-09
1.7218e-13
-9.76495e-14
1.38561e-09
-1.3826e-13
-7.69098e-15
1.38563e-09
-1.58801e-13
1.36508e-13
1.38504e-09
5.36856e-13
-1.45568e-13
1.38631e-09
1.19821e-13
5.10095e-13
1.38644e-09
-1.62908e-13
-2.17105e-14
1.38516e-09
-5.11053e-13
2.73013e-12
1.38529e-09
2.03907e-13
-2.93353e-13
1.38503e-09
1.8403e-14
6.9397e-14
1.38566e-09
1.47894e-13
-1.64294e-13
1.38565e-09
1.04214e-13
1.34948e-13
1.38539e-09
1.33047e-13
-1.04713e-13
1.38489e-09
5.53888e-13
3.07483e-14
1.38534e-09
-1.02287e-12
-2.16095e-13
1.38527e-09
5.02776e-13
2.46999e-13
1.38644e-09
-2.89865e-12
1.61008e-12
-3.91211e-13
-6.34032e-13
8.8417e-09
9.59806e-09
-6.60682e-09
-1.76197e-09
-2.5027e-09
-4.02192e-09
-2.15748e-09
2.22292e-09
-1.18304e-09
-1.07867e-09
4.80219e-10
-1.15616e-09
5.46233e-10
3.25077e-10
3.09736e-09
2.62888e-09
2.95929e-09
-2.74677e-10
-3.20101e-09
-1.0196e-09
6.71828e-09
-3.88211e-10
4.34029e-09
3.11856e-09
-7.44488e-09
3.60811e-11
-2.00206e-09
-4.69472e-10
5.19379e-08
-4.52552e-09
-1.84489e-09
-4.27559e-08
3.50612e-10
-2.44978e-11
1.35748e-09
-9.97243e-10
-2.95605e-10
1.02002e-09
-4.68229e-10
-1.52952e-09
6.04276e-10
5.63909e-10
-5.81218e-10
5.74366e-10
4.56127e-10
5.01752e-10
-3.63112e-10
-1.16913e-09
-1.25214e-10
8.78586e-11
-2.9801e-11
-2.29153e-11
9.00721e-11
-3.37588e-11
-1.36017e-11
1.85638e-10
1.1296e-11
9.93605e-12
-3.3768e-11
-6.30927e-11
-6.26506e-11
1.37354e-09
-1.2299e-12
-2.57353e-11
-2.49917e-10
-2.45725e-10
-4.17236e-10
-4.08691e-10
1.37939e-09
1.15352e-11
-1.78536e-12
1.38221e-09
5.84916e-12
4.57139e-13
1.38357e-09
4.33115e-12
-2.92591e-14
1.38423e-09
2.80349e-12
-2.94041e-15
1.38484e-09
1.45687e-12
-4.45093e-15
1.38483e-09
1.11232e-12
2.36086e-13
1.3854e-09
-1.92517e-13
4.871e-13
1.38558e-09
3.57873e-13
-5.1997e-13
1.38564e-09
3.20345e-13
-7.8644e-13
1.38514e-09
-3.957e-13
-1.37486e-12
1.38557e-09
2.18313e-13
-8.69697e-13
1.38537e-09
2.72595e-13
5.36295e-15
1.38511e-09
-1.62039e-13
7.45504e-13
1.38535e-09
-5.98086e-14
-6.26357e-13
1.38507e-09
1.85243e-13
-3.11768e-14
1.3857e-09
3.39572e-13
-9.07596e-13
1.38591e-09
-2.74709e-13
-4.31211e-13
1.38532e-09
1.23327e-12
-5.56829e-13
1.3858e-09
-4.21733e-14
4.17976e-13
1.386e-09
3.12822e-13
1.50302e-13
1.38604e-09
2.72723e-13
5.71435e-13
1.38502e-09
-1.12972e-13
-2.27367e-12
1.38523e-09
3.06983e-13
-1.22683e-13
1.38588e-09
9.26458e-13
-5.90781e-13
1.38519e-09
5.19479e-14
8.10433e-13
1.38546e-09
2.0145e-13
-5.92627e-13
1.38532e-09
1.0672e-13
-1.21437e-13
1.38554e-09
1.39935e-13
1.83217e-13
1.38605e-09
-4.68844e-13
8.89539e-14
1.38574e-09
8.56869e-13
-7.07355e-13
1.38572e-09
-4.05201e-13
-7.80652e-14
1.3858e-09
-3.65148e-13
4.89422e-13
1.38543e-09
1.91692e-12
-1.52609e-12
1.38547e-09
-1.86736e-13
2.99208e-13
1.38532e-09
7.24291e-14
1.78617e-13
1.38565e-09
-5.00586e-13
3.09226e-13
1.3862e-09
-2.32467e-13
2.40453e-13
1.38491e-09
5.00981e-13
-2.40329e-13
1.38517e-09
3.83389e-13
-1.37795e-13
1.38524e-09
1.09091e-12
-4.055e-12
-1.92546e-12
-4.72148e-15
3.05009e-09
3.26963e-09
7.20114e-09
1.74238e-08
-1.77122e-09
-2.00138e-08
3.40286e-09
-1.59192e-10
-1.76502e-08
-1.1407e-08
5.83481e-09
3.13025e-08
-4.50711e-10
1.22891e-09
2.13255e-09
4.34171e-11
-4.68592e-10
-6.42534e-10
-2.94038e-10
-5.00078e-10
-1.76135e-10
-9.23309e-10
1.44037e-09
-1.54748e-09
-8.83028e-10
1.74985e-09
-1.11824e-09
6.45246e-10
7.03442e-10
2.64549e-10
1.85665e-10
-1.47189e-10
7.31631e-10
-3.93282e-11
5.19391e-10
-1.06451e-09
-8.8306e-11
8.29514e-12
3.75393e-13
-9.98375e-12
8.96192e-11
1.38391e-09
-2.83057e-11
-2.4477e-10
-2.4494e-10
-4.16295e-10
-4.10057e-10
-9.9055e-12
-1.32349e-11
-1.44183e-11
-2.00966e-11
1.37293e-09
-8.93678e-13
1.37782e-09
-2.07263e-13
1.38021e-09
8.47677e-14
1.38157e-09
6.89213e-14
1.38208e-09
1.51434e-13
1.38432e-09
4.65507e-13
1.38508e-09
-6.8291e-14
1.38477e-09
-7.55181e-13
1.38473e-09
-2.44347e-14
1.3858e-09
8.08446e-13
1.3863e-09
-4.85087e-14
1.38494e-09
-1.35618e-12
1.38482e-09
-8.03667e-13
1.38522e-09
-7.82991e-13
1.38522e-09
-9.05372e-14
1.38559e-09
5.46608e-14
1.3852e-09
5.65004e-13
1.38526e-09
-2.67813e-13
1.38576e-09
7.76595e-13
1.38563e-09
4.45568e-14
1.38612e-09
1.80056e-12
1.3859e-09
-1.21327e-13
1.38567e-09
-1.84174e-12
1.38483e-09
-1.09025e-12
1.38523e-09
8.87827e-13
1.38543e-09
-4.17735e-13
1.38518e-09
1.00287e-12
1.38552e-09
-5.73848e-13
1.38569e-09
-2.65423e-13
1.38542e-09
-1.96539e-14
1.38606e-09
7.4561e-13
1.38575e-09
1.47263e-13
1.38564e-09
-2.31723e-13
1.38606e-09
1.81553e-12
1.38572e-09
-3.53161e-12
1.38539e-09
-1.13786e-13
1.38551e-09
-1.32179e-13
1.38554e-09
-2.66871e-13
1.38597e-09
-3.77372e-14
1.38656e-09
-2.15027e-13
1.38525e-09
2.62172e-12
7.32905e-14
-6.14921e-09
4.66077e-10
1.35768e-08
2.47458e-09
-8.3944e-10
4.85157e-10
-4.03993e-09
-3.28619e-09
-6.03096e-09
4.66669e-09
-8.61351e-09
1.15871e-09
-1.4837e-08
-2.20446e-09
4.77835e-08
-2.49751e-08
1.65263e-11
2.94178e-11
2.90378e-10
-2.76066e-10
-6.19896e-10
-7.34202e-10
-1.32219e-09
1.05929e-09
4.70475e-09
-1.02559e-08
-1.04357e-09
6.87633e-09
3.12452e-10
-1.65723e-08
-2.39796e-09
3.81358e-09
1.34386e-08
-1.01646e-09
4.55263e-10
-1.8987e-10
2.9268e-09
7.12755e-11
3.93436e-11
1.69395e-10
2.8215e-10
-3.08588e-10
-9.96587e-11
-1.07807e-10
1.77297e-11
4.86485e-11
1.44645e-10
2.33039e-09
-1.15861e-12
2.71262e-11
-5.76943e-10
-5.94971e-10
-5.77067e-10
-5.95091e-10
-1.06446e-11
-1.15308e-12
-1.06353e-11
2.29756e-09
3.73526e-11
1.97512e-12
2.30321e-09
-7.29357e-13
1.85926e-13
2.30468e-09
6.69756e-13
-1.23704e-13
2.30813e-09
-8.59492e-13
-2.08406e-13
2.3115e-09
-6.65489e-13
-6.26384e-13
2.31062e-09
-9.92791e-13
5.6082e-13
2.31106e-09
-4.15428e-13
1.71003e-13
2.31235e-09
-3.14411e-13
5.5574e-15
2.31288e-09
-7.1688e-14
-2.13646e-14
2.31185e-09
-4.06479e-13
-1.51736e-13
2.31152e-09
-7.46512e-13
-1.87442e-13
2.31295e-09
3.08255e-13
2.41616e-12
2.31319e-09
3.79189e-13
-1.03949e-12
2.31325e-09
-6.67374e-13
-4.04579e-14
2.31305e-09
2.16519e-13
2.04386e-14
2.31312e-09
-2.69334e-13
-5.8345e-14
2.31323e-09
-9.76654e-13
2.46383e-13
2.31364e-09
-1.95651e-12
-4.21151e-13
2.31395e-09
-8.29635e-13
2.38922e-13
2.31432e-09
-1.91864e-13
-7.50592e-14
2.31297e-09
-1.49894e-12
6.14893e-14
2.31341e-09
3.28103e-13
2.9582e-15
2.3124e-09
5.91122e-12
-1.67949e-12
2.31279e-09
4.52159e-12
-3.0156e-12
2.31303e-09
-4.48789e-13
-2.61832e-13
2.31392e-09
2.04504e-13
-2.87356e-13
2.31372e-09
1.62293e-13
-2.81713e-13
2.31318e-09
1.20656e-13
-6.61117e-13
2.31218e-09
9.63504e-13
-3.43507e-13
2.31199e-09
-1.60321e-12
8.51385e-13
2.31505e-09
-5.88612e-13
-2.05576e-12
2.31411e-09
9.59601e-13
-3.4523e-14
2.31375e-09
3.23531e-13
3.48262e-14
2.31379e-09
4.82353e-14
2.87309e-13
2.31491e-09
-4.11296e-13
1.31923e-12
2.31343e-09
3.17235e-12
-2.31414e-12
2.31341e-09
-9.88818e-14
-5.53404e-13
2.31297e-09
2.27818e-13
1.01424e-13
2.31462e-09
-1.4182e-12
-6.09517e-13
2.31417e-09
2.30819e-13
1.6345e-13
2.31306e-09
7.8174e-13
9.19324e-13
-5.87252e-13
-4.49208e-13
5.59571e-09
-1.13851e-08
3.20936e-09
-2.86244e-09
3.72852e-09
-2.17677e-09
2.98195e-09
2.45668e-09
-1.17487e-08
6.95707e-09
4.94896e-09
-5.03868e-10
-5.46851e-08
4.18527e-10
1.72133e-10
4.88389e-10
5.41099e-08
2.77982e-09
1.31699e-09
6.8434e-09
-5.22188e-09
-1.46921e-09
-4.24911e-09
-1.60313e-10
-3.69177e-09
1.89044e-09
7.44862e-10
1.99501e-10
-8.29172e-09
-1.30813e-08
5.74828e-09
1.66417e-08
-1.12602e-09
8.96643e-10
3.18777e-10
-1.95057e-10
-7.17578e-10
8.23231e-10
-6.74206e-11
1.57523e-11
-8.53799e-12
-1.07382e-11
-5.99439e-12
7.6939e-11
-5.3912e-10
5.56075e-10
-1.47023e-11
2.07194e-13
-3.62196e-12
2.26889e-09
-3.61509e-11
2.05894e-11
-5.52035e-10
-5.66295e-10
-5.52035e-10
-5.66312e-10
2.28744e-09
-2.29174e-11
1.75566e-12
2.3009e-09
-1.17947e-11
-5.07154e-13
2.30678e-09
-6.7265e-12
-2.20675e-14
2.30964e-09
-3.96705e-12
2.01033e-13
2.31116e-09
-2.54328e-12
-2.21565e-15
2.31227e-09
-1.52538e-12
-1.08205e-14
2.31166e-09
-2.0831e-13
2.67845e-13
2.31236e-09
-1.38051e-12
1.25048e-13
2.31253e-09
-1.26455e-12
1.21741e-12
2.31281e-09
-1.04581e-12
-2.03014e-14
2.31295e-09
2.96511e-13
-5.50762e-14
2.3129e-09
4.93948e-13
-8.2379e-14
2.31207e-09
4.08676e-13
-9.77523e-14
2.31334e-09
-4.74143e-12
1.71413e-12
2.31412e-09
-3.79637e-12
1.35999e-12
2.31368e-09
3.84501e-13
-4.72856e-13
2.31264e-09
2.31507e-13
2.25453e-13
2.31333e-09
-4.66044e-13
-3.4746e-13
2.31329e-09
-1.77469e-13
8.92142e-15
2.31323e-09
3.15513e-12
-1.74806e-12
2.31132e-09
3.84345e-12
-9.51484e-13
2.31276e-09
2.69091e-13
2.25246e-12
2.3131e-09
7.62213e-13
1.7386e-12
2.31445e-09
-2.48477e-12
2.71813e-12
2.31479e-09
1.28296e-12
9.26646e-13
2.31369e-09
9.43533e-13
3.1552e-13
2.3138e-09
-9.57595e-14
5.95484e-14
2.31448e-09
2.80875e-13
-9.86476e-15
2.31465e-09
-4.8674e-13
-7.77836e-13
2.31199e-09
-7.5853e-13
2.09063e-12
2.31252e-09
6.63292e-13
-7.75532e-13
2.31284e-09
1.99825e-14
-9.75767e-15
2.31278e-09
4.04199e-13
-1.53428e-13
2.31293e-09
-3.79173e-13
-2.52866e-14
2.31456e-09
4.30736e-13
2.23627e-12
2.3141e-09
1.9053e-13
1.24669e-13
2.31423e-09
2.7926e-13
-4.8846e-14
2.31366e-09
7.33287e-13
-5.6395e-13
2.31342e-09
6.36777e-13
-1.98968e-13
2.31382e-09
2.15492e-13
-7.78531e-13
-2.61784e-13
2.03915e-13
5.81888e-10
-9.53472e-10
-4.61076e-09
8.10728e-10
7.62335e-10
6.2596e-10
-1.4218e-09
7.28725e-10
-2.13693e-09
-4.61749e-08
1.42638e-10
5.4885e-08
3.70611e-10
1.06617e-09
-5.644e-08
-2.11319e-11
3.25003e-09
2.56144e-09
-2.72943e-09
-1.56133e-09
-1.2672e-10
9.31258e-11
6.18797e-11
-1.19591e-10
-1.40581e-10
2.94715e-11
1.23978e-10
-9.37088e-10
-1.16474e-09
7.41291e-10
-8.14168e-11
2.94601e-08
-3.65951e-11
2.73219e-09
-8.16253e-09
2.25082e-10
-2.4215e-08
-5.52576e-09
8.39207e-10
-3.67232e-09
1.88471e-09
1.46709e-09
5.00708e-09
1.26085e-11
1.12536e-12
1.13118e-10
-2.26048e-10
3.73423e-12
9.54629e-11
-1.48051e-10
6.13632e-10
-4.55716e-13
-1.11032e-11
-1.44181e-10
-1.53204e-10
-1.49503e-10
3.28894e-11
-1.00991e-11
-1.02817e-11
-9.9098e-12
-9.72703e-12
2.31276e-09
-4.32548e-11
2.68339e-11
-5.79831e-10
-5.9959e-10
-5.79831e-10
-5.99628e-10
2.30947e-09
-2.37363e-11
2.03194e-12
2.31143e-09
-1.30775e-11
-3.53975e-13
2.31208e-09
-7.54564e-12
4.84509e-14
2.31271e-09
-4.56967e-12
-2.77818e-14
2.31282e-09
-2.66387e-12
-6.0373e-16
2.31283e-09
-1.50127e-12
-2.20725e-14
2.31371e-09
-9.78091e-13
-7.04382e-14
2.31373e-09
-4.44552e-13
-2.86713e-13
2.31338e-09
-4.8823e-13
-1.09086e-12
2.31162e-09
5.62419e-13
8.18699e-14
2.31252e-09
-6.39317e-13
-5.53003e-15
2.31324e-09
-6.3189e-13
8.30419e-14
2.31374e-09
-1.12569e-13
-3.69678e-14
2.31306e-09
-5.53197e-13
-1.70561e-12
2.31219e-09
-8.083e-14
-1.43752e-12
2.31268e-09
-2.89746e-13
1.25864e-13
2.31302e-09
-2.29021e-13
3.55468e-14
2.31202e-09
5.47203e-14
7.54807e-14
2.31165e-09
6.25144e-13
-2.09257e-13
2.31245e-09
-3.2367e-13
1.345e-12
2.3151e-09
-3.26306e-12
2.24207e-12
2.31444e-09
1.1372e-12
-1.57283e-13
2.3158e-09
-2.46835e-12
8.60188e-13
2.31343e-09
5.36776e-13
-2.59946e-12
2.31272e-09
2.45686e-13
-7.27262e-13
2.31349e-09
6.79913e-13
-1.8721e-13
2.3137e-09
-2.00927e-13
-2.64791e-14
2.31385e-09
1.81775e-13
-2.47235e-14
2.31376e-09
-8.22266e-14
-2.56409e-15
2.31321e-09
-5.40805e-13
-1.51754e-14
2.31252e-09
-3.89663e-13
1.49613e-12
2.31257e-09
-2.323e-14
-9.0821e-15
2.31275e-09
-3.29005e-13
3.0499e-13
2.31376e-09
1.51455e-12
-1.72947e-12
2.31472e-09
-2.23736e-12
8.49536e-13
2.31447e-09
1.0748e-12
-2.7361e-13
2.31447e-09
7.33442e-13
-3.22658e-13
2.31331e-09
1.07125e-13
9.24875e-13
2.31297e-09
8.83161e-13
5.13696e-14
2.31293e-09
4.30259e-13
-1.12779e-13
-2.18522e-12
1.33567e-12
2.43703e-09
2.46822e-10
-2.30765e-09
4.94656e-10
1.80945e-10
3.23625e-10
-2.38994e-09
1.14904e-09
7.05288e-09
2.90823e-09
-4.1838e-10
3.7237e-09
-2.6189e-09
-2.89461e-09
3.33127e-09
-5.42406e-11
-1.14297e-10
-9.78079e-12
1.45353e-10
-7.32629e-09
-3.06381e-10
2.2082e-08
-1.29592e-08
-3.87981e-09
3.07254e-09
-3.41292e-09
-7.51198e-10
1.97425e-09
-6.00764e-09
-7.98741e-10
-1.8022e-10
2.82186e-09
-1.5337e-09
-2.54343e-09
-2.02818e-09
7.04571e-10
1.03576e-09
2.52209e-09
5.37749e-09
-7.20329e-10
8.10678e-10
-1.77656e-10
1.39544e-10