/*--------------------------------*- C++ -*----------------------------------*\
| =========                 |                                                 |
| \\      /  F ield         | OpenFOAM: The Open Source CFD Toolbox           |
|  \\    /   O peration     | Version:  5.0                                   |
|   \\  /    A nd           | Web:      www.OpenFOAM.org                      |
|    \\/     M anipulation  |                                                 |
\*---------------------------------------------------------------------------*/
FoamFile
{
    version     2.0;
    format      ascii;
    class       volScalarField;
    location    "3.9";
    object      rAU;
}
// * * * * * * * * * * * * * * * * * * * * * * * * * * * * * * * * * * * * * //

dimensions      [-1 3 1 0 0 0 0];

internalField   nonuniform List<scalar> 
8094
(
9.55746e-07
8.90488e-07
7.96674e-07
8.42756e-07
7.64363e-07
6.85298e-07
4.41986e-08
3.92285e-07
3.93662e-07
3.94696e-07
3.9573e-07
3.96763e-07
3.97795e-07
3.98826e-07
3.99857e-07
4.00886e-07
4.01916e-07
4.02944e-07
4.03971e-07
4.04999e-07
4.06025e-07
4.0705e-07
4.08075e-07
4.09099e-07
4.10122e-07
4.11145e-07
4.12167e-07
4.13188e-07
4.14208e-07
4.15228e-07
4.16246e-07
4.17264e-07
4.18282e-07
4.19298e-07
4.20314e-07
4.21328e-07
4.22342e-07
4.23356e-07
4.24368e-07
4.25379e-07
4.2639e-07
4.274e-07
4.28409e-07
4.29418e-07
4.30425e-07
4.31432e-07
4.32438e-07
4.33443e-07
4.34446e-07
4.36222e-07
9.59212e-07
8.61673e-07
6.3776e-07
8.38989e-07
8.84853e-07
6.83703e-07
8.15725e-08
1.29776e-07
3.93454e-07
3.94697e-07
3.95731e-07
3.96763e-07
3.97795e-07
3.98826e-07
3.99857e-07
4.00886e-07
4.01916e-07
4.02944e-07
4.03971e-07
4.04999e-07
4.06025e-07
4.0705e-07
4.08075e-07
4.09099e-07
4.10122e-07
4.11145e-07
4.12167e-07
4.13188e-07
4.14208e-07
4.15228e-07
4.16246e-07
4.17264e-07
4.18281e-07
4.19298e-07
4.20314e-07
4.21328e-07
4.22342e-07
4.23356e-07
4.24368e-07
4.25379e-07
4.26391e-07
4.274e-07
4.28409e-07
4.29418e-07
4.30425e-07
4.31432e-07
4.32438e-07
4.33443e-07
4.34446e-07
4.36222e-07
9.6966e-07
9.51919e-07
8.86343e-07
8.80622e-07
6.82e-07
6.80013e-07
6.96478e-07
1.29662e-07
3.93455e-07
3.94698e-07
3.95731e-07
3.96763e-07
3.97795e-07
3.98826e-07
3.99857e-07
4.00886e-07
4.01916e-07
4.02944e-07
4.03971e-07
4.04999e-07
4.06025e-07
4.0705e-07
4.08075e-07
4.09099e-07
4.10122e-07
4.11145e-07
4.12167e-07
4.13188e-07
4.14208e-07
4.15228e-07
4.16246e-07
4.17264e-07
4.18281e-07
4.19298e-07
4.20314e-07
4.21328e-07
4.22342e-07
4.23356e-07
4.24368e-07
4.25379e-07
4.26391e-07
4.274e-07
4.28409e-07
4.29418e-07
4.30425e-07
4.31432e-07
4.32438e-07
4.33443e-07
4.34446e-07
4.36222e-07
9.68203e-07
9.67513e-07
8.85767e-07
9.28682e-07
8.87151e-07
6.86534e-07
9.01107e-07
3.52124e-08
3.93455e-07
3.94698e-07
3.95731e-07
3.96763e-07
3.97795e-07
3.98826e-07
3.99857e-07
4.00886e-07
4.01916e-07
4.02944e-07
4.03971e-07
4.04999e-07
4.06025e-07
4.0705e-07
4.08075e-07
4.09099e-07
4.10122e-07
4.11145e-07
4.12167e-07
4.13188e-07
4.14208e-07
4.15228e-07
4.16246e-07
4.17264e-07
4.18281e-07
4.19298e-07
4.20314e-07
4.21328e-07
4.22342e-07
4.23356e-07
4.24368e-07
4.25379e-07
4.26391e-07
4.274e-07
4.28409e-07
4.29418e-07
4.30425e-07
4.31432e-07
4.32438e-07
4.33443e-07
4.34447e-07
4.36222e-07
8.93725e-07
8.88916e-07
6.81458e-07
8.13659e-07
6.1111e-07
6.70375e-07
9.03153e-07
4.55999e-08
3.93454e-07
3.94697e-07
3.95731e-07
3.96763e-07
3.97795e-07
3.98826e-07
3.99857e-07
4.00886e-07
4.01916e-07
4.02944e-07
4.03971e-07
4.04999e-07
4.06025e-07
4.0705e-07
4.08075e-07
4.09099e-07
4.10122e-07
4.11145e-07
4.12167e-07
4.13188e-07
4.14208e-07
4.15228e-07
4.16246e-07
4.17265e-07
4.18281e-07
4.19298e-07
4.20314e-07
4.21328e-07
4.22342e-07
4.23356e-07
4.24368e-07
4.25379e-07
4.2639e-07
4.274e-07
4.28409e-07
4.29418e-07
4.30425e-07
4.31432e-07
4.32438e-07
4.33443e-07
4.34446e-07
4.36222e-07
8.33153e-07
6.83104e-07
8.8521e-07
8.72784e-07
8.02369e-07
6.52174e-07
9.03137e-07
5.34666e-08
3.93454e-07
3.94697e-07
3.95731e-07
3.96763e-07
3.97795e-07
3.98826e-07
3.99857e-07
4.00886e-07
4.01916e-07
4.02944e-07
4.03971e-07
4.04999e-07
4.06025e-07
4.0705e-07
4.08075e-07
4.09099e-07
4.10122e-07
4.11145e-07
4.12167e-07
4.13188e-07
4.14208e-07
4.15228e-07
4.16246e-07
4.17265e-07
4.18282e-07
4.19298e-07
4.20314e-07
4.21328e-07
4.22342e-07
4.23356e-07
4.24368e-07
4.25379e-07
4.2639e-07
4.274e-07
4.28409e-07
4.29418e-07
4.30425e-07
4.31432e-07
4.32438e-07
4.33443e-07
4.34446e-07
4.36222e-07
8.90435e-07
7.42035e-07
5.91872e-07
8.91098e-07
3.01812e-07
6.85468e-07
9.01686e-07
3.98141e-08
3.93453e-07
3.94696e-07
3.9573e-07
3.96763e-07
3.97795e-07
3.98826e-07
3.99857e-07
4.00886e-07
4.01916e-07
4.02944e-07
4.03971e-07
4.04999e-07
4.06025e-07
4.0705e-07
4.08075e-07
4.09099e-07
4.10122e-07
4.11145e-07
4.12167e-07
4.13188e-07
4.14208e-07
4.15228e-07
4.16246e-07
4.17265e-07
4.18282e-07
4.19298e-07
4.20314e-07
4.21328e-07
4.22342e-07
4.23356e-07
4.24368e-07
4.25379e-07
4.2639e-07
4.274e-07
4.28409e-07
4.29418e-07
4.30425e-07
4.31432e-07
4.32438e-07
4.33443e-07
4.34446e-07
4.36222e-07
8.91618e-07
8.07516e-07
8.40585e-07
2.82349e-07
8.29166e-07
6.67942e-07
6.98471e-07
3.52976e-08
3.93453e-07
3.94696e-07
3.9573e-07
3.96763e-07
3.97795e-07
3.98826e-07
3.99857e-07
4.00886e-07
4.01916e-07
4.02944e-07
4.03971e-07
4.04999e-07
4.06025e-07
4.0705e-07
4.08075e-07
4.09099e-07
4.10122e-07
4.11145e-07
4.12167e-07
4.13188e-07
4.14208e-07
4.15228e-07
4.16246e-07
4.17264e-07
4.18281e-07
4.19298e-07
4.20314e-07
4.21328e-07
4.22342e-07
4.23356e-07
4.24368e-07
4.25379e-07
4.26391e-07
4.274e-07
4.28409e-07
4.29418e-07
4.30425e-07
4.31432e-07
4.32438e-07
4.33443e-07
4.34446e-07
4.36222e-07
9.60067e-07
9.54466e-07
7.81405e-07
8.06751e-07
7.92863e-07
6.3884e-07
6.9611e-07
1.29502e-07
3.93453e-07
3.94697e-07
3.9573e-07
3.96763e-07
3.97795e-07
3.98826e-07
3.99857e-07
4.00886e-07
4.01916e-07
4.02944e-07
4.03971e-07
4.04999e-07
4.06025e-07
4.0705e-07
4.08075e-07
4.09099e-07
4.10122e-07
4.11145e-07
4.12167e-07
4.13188e-07
4.14208e-07
4.15228e-07
4.16246e-07
4.17265e-07
4.18281e-07
4.19298e-07
4.20314e-07
4.21328e-07
4.22342e-07
4.23356e-07
4.24368e-07
4.25379e-07
4.2639e-07
4.274e-07
4.28409e-07
4.29418e-07
4.30425e-07
4.31432e-07
4.32438e-07
4.33443e-07
4.34446e-07
4.36222e-07
9.66562e-07
9.41351e-07
9.50435e-07
8.76397e-07
9.00327e-07
6.85923e-07
8.8381e-08
3.92285e-07
3.93662e-07
3.94696e-07
3.9573e-07
3.96763e-07
3.97795e-07
3.98826e-07
3.99857e-07
4.00886e-07
4.01916e-07
4.02944e-07
4.03971e-07
4.04999e-07
4.06025e-07
4.0705e-07
4.08075e-07
4.09099e-07
4.10122e-07
4.11145e-07
4.12167e-07
4.13188e-07
4.14208e-07
4.15228e-07
4.16246e-07
4.17264e-07
4.18281e-07
4.19298e-07
4.20314e-07
4.21328e-07
4.22342e-07
4.23356e-07
4.24368e-07
4.25379e-07
4.2639e-07
4.274e-07
4.28409e-07
4.29418e-07
4.30425e-07
4.31432e-07
4.32438e-07
4.33443e-07
4.34446e-07
4.36222e-07
9.69991e-07
9.13379e-07
5.92813e-07
1.65259e-07
7.75823e-07
6.9629e-07
6.57334e-08
5.04672e-07
5.06383e-07
5.07526e-07
5.08665e-07
5.09802e-07
5.10938e-07
5.12072e-07
5.13204e-07
5.14335e-07
5.15464e-07
5.16591e-07
5.17718e-07
5.18841e-07
5.19964e-07
5.21085e-07
5.22204e-07
5.23322e-07
5.24438e-07
5.25552e-07
5.26665e-07
5.27776e-07
5.28885e-07
5.29993e-07
5.31099e-07
5.32203e-07
5.33307e-07
5.34408e-07
5.35507e-07
5.36605e-07
5.37702e-07
5.38796e-07
5.39889e-07
5.4098e-07
5.42069e-07
5.43157e-07
5.44244e-07
5.45328e-07
5.46411e-07
5.47493e-07
5.48571e-07
5.4965e-07
5.50726e-07
5.53041e-07
9.56236e-07
9.04582e-07
5.66018e-07
2.9078e-07
8.62936e-07
6.77057e-07
1.18235e-07
1.8425e-07
5.06039e-07
5.07528e-07
5.08666e-07
5.09803e-07
5.10939e-07
5.12072e-07
5.13204e-07
5.14335e-07
5.15464e-07
5.16591e-07
5.17718e-07
5.18841e-07
5.19964e-07
5.21085e-07
5.22204e-07
5.23322e-07
5.24438e-07
5.25552e-07
5.26665e-07
5.27776e-07
5.28885e-07
5.29993e-07
5.31099e-07
5.32203e-07
5.33306e-07
5.34408e-07
5.35507e-07
5.36605e-07
5.37702e-07
5.38796e-07
5.39889e-07
5.4098e-07
5.42069e-07
5.43158e-07
5.44244e-07
5.45328e-07
5.46411e-07
5.47493e-07
5.48571e-07
5.4965e-07
5.50726e-07
5.53041e-07
9.71034e-07
9.06275e-07
2.71259e-07
8.916e-07
7.58373e-07
6.66265e-07
7.72845e-07
1.83832e-07
5.0604e-07
5.07528e-07
5.08666e-07
5.09803e-07
5.10939e-07
5.12072e-07
5.13205e-07
5.14335e-07
5.15464e-07
5.16591e-07
5.17718e-07
5.18841e-07
5.19964e-07
5.21085e-07
5.22204e-07
5.23322e-07
5.24438e-07
5.25552e-07
5.26665e-07
5.27776e-07
5.28885e-07
5.29993e-07
5.31099e-07
5.32203e-07
5.33306e-07
5.34408e-07
5.35507e-07
5.36605e-07
5.37702e-07
5.38796e-07
5.39889e-07
5.4098e-07
5.42069e-07
5.43158e-07
5.44244e-07
5.45328e-07
5.46411e-07
5.47493e-07
5.48571e-07
5.4965e-07
5.50726e-07
5.53041e-07
9.57892e-07
9.7341e-07
7.46115e-07
8.06452e-07
9.11163e-07
7.1354e-07
9.30108e-07
5.20064e-08
5.06041e-07
5.07529e-07
5.08666e-07
5.09804e-07
5.10939e-07
5.12072e-07
5.13205e-07
5.14336e-07
5.15464e-07
5.16592e-07
5.17718e-07
5.18841e-07
5.19964e-07
5.21085e-07
5.22204e-07
5.23322e-07
5.24438e-07
5.25552e-07
5.26665e-07
5.27776e-07
5.28885e-07
5.29993e-07
5.311e-07
5.32203e-07
5.33307e-07
5.34408e-07
5.35507e-07
5.36605e-07
5.37702e-07
5.38796e-07
5.39889e-07
5.4098e-07
5.42069e-07
5.43157e-07
5.44244e-07
5.45328e-07
5.46411e-07
5.47493e-07
5.48571e-07
5.4965e-07
5.50726e-07
5.53041e-07
8.94634e-07
8.95176e-07
5.72236e-07
7.42764e-07
7.22951e-07
6.59545e-07
9.3205e-07
6.80583e-08
5.0604e-07
5.07528e-07
5.08666e-07
5.09803e-07
5.10939e-07
5.12072e-07
5.13205e-07
5.14336e-07
5.15464e-07
5.16592e-07
5.17718e-07
5.18841e-07
5.19964e-07
5.21085e-07
5.22204e-07
5.23322e-07
5.24438e-07
5.25552e-07
5.26665e-07
5.27776e-07
5.28885e-07
5.29993e-07
5.311e-07
5.32203e-07
5.33307e-07
5.34408e-07
5.35507e-07
5.36605e-07
5.37702e-07
5.38796e-07
5.39889e-07
5.4098e-07
5.42069e-07
5.43157e-07
5.44244e-07
5.45328e-07
5.46411e-07
5.47493e-07
5.48571e-07
5.4965e-07
5.50726e-07
5.53041e-07
7.30319e-07
3.94794e-07
8.96366e-07
8.70582e-07
6.21032e-07
7.03783e-07
9.31758e-07
8.05445e-08
5.06039e-07
5.07527e-07
5.08666e-07
5.09803e-07
5.10939e-07
5.12072e-07
5.13205e-07
5.14335e-07
5.15464e-07
5.16591e-07
5.17718e-07
5.18841e-07
5.19964e-07
5.21085e-07
5.22204e-07
5.23322e-07
5.24438e-07
5.25552e-07
5.26665e-07
5.27776e-07
5.28885e-07
5.29993e-07
5.311e-07
5.32203e-07
5.33307e-07
5.34408e-07
5.35507e-07
5.36605e-07
5.37702e-07
5.38796e-07
5.39889e-07
5.4098e-07
5.42069e-07
5.43157e-07
5.44244e-07
5.45328e-07
5.46411e-07
5.47493e-07
5.48571e-07
5.4965e-07
5.50726e-07
5.53041e-07
5.65956e-07
4.33938e-07
6.85521e-07
7.51157e-07
2.60063e-07
7.29515e-07
9.30514e-07
5.90578e-08
5.06036e-07
5.07526e-07
5.08665e-07
5.09803e-07
5.10939e-07
5.12072e-07
5.13204e-07
5.14335e-07
5.15464e-07
5.16591e-07
5.17718e-07
5.18841e-07
5.19964e-07
5.21085e-07
5.22204e-07
5.23322e-07
5.24438e-07
5.25552e-07
5.26665e-07
5.27776e-07
5.28885e-07
5.29993e-07
5.31099e-07
5.32203e-07
5.33307e-07
5.34408e-07
5.35507e-07
5.36605e-07
5.37702e-07
5.38796e-07
5.39889e-07
5.4098e-07
5.42069e-07
5.43158e-07
5.44244e-07
5.45328e-07
5.46411e-07
5.47493e-07
5.48572e-07
5.4965e-07
5.50726e-07
5.53041e-07
9.08914e-07
9.29914e-07
6.715e-07
5.3678e-07
7.7087e-07
7.33926e-07
7.75398e-07
5.19864e-08
5.06036e-07
5.07526e-07
5.08665e-07
5.09802e-07
5.10938e-07
5.12072e-07
5.13204e-07
5.14335e-07
5.15464e-07
5.16591e-07
5.17717e-07
5.18841e-07
5.19964e-07
5.21085e-07
5.22204e-07
5.23322e-07
5.24438e-07
5.25552e-07
5.26665e-07
5.27776e-07
5.28885e-07
5.29993e-07
5.31099e-07
5.32203e-07
5.33307e-07
5.34408e-07
5.35507e-07
5.36605e-07
5.37702e-07
5.38796e-07
5.39889e-07
5.4098e-07
5.42069e-07
5.43158e-07
5.44244e-07
5.45328e-07
5.46411e-07
5.47493e-07
5.48572e-07
5.4965e-07
5.50726e-07
5.53041e-07
9.63238e-07
9.68908e-07
8.36462e-07
3.70128e-07
8.90935e-07
4.03322e-07
7.68524e-07
1.83947e-07
5.06038e-07
5.07527e-07
5.08665e-07
5.09803e-07
5.10939e-07
5.12072e-07
5.13204e-07
5.14335e-07
5.15464e-07
5.16591e-07
5.17717e-07
5.18841e-07
5.19964e-07
5.21085e-07
5.22204e-07
5.23322e-07
5.24438e-07
5.25552e-07
5.26665e-07
5.27776e-07
5.28885e-07
5.29993e-07
5.31099e-07
5.32203e-07
5.33307e-07
5.34408e-07
5.35507e-07
5.36605e-07
5.37702e-07
5.38796e-07
5.39889e-07
5.4098e-07
5.42069e-07
5.43157e-07
5.44244e-07
5.45328e-07
5.46411e-07
5.47493e-07
5.48572e-07
5.4965e-07
5.50726e-07
5.53041e-07
9.60615e-07
8.59501e-07
8.69123e-07
7.88286e-07
9.11544e-07
7.20691e-07
1.276e-07
5.04672e-07
5.06384e-07
5.07526e-07
5.08665e-07
5.09802e-07
5.10938e-07
5.12072e-07
5.13204e-07
5.14335e-07
5.15464e-07
5.16591e-07
5.17718e-07
5.18841e-07
5.19964e-07
5.21085e-07
5.22204e-07
5.23322e-07
5.24438e-07
5.25552e-07
5.26665e-07
5.27776e-07
5.28885e-07
5.29993e-07
5.31099e-07
5.32203e-07
5.33307e-07
5.34408e-07
5.35507e-07
5.36605e-07
5.37702e-07
5.38796e-07
5.39889e-07
5.4098e-07
5.42069e-07
5.43157e-07
5.44244e-07
5.45328e-07
5.46411e-07
5.47493e-07
5.48572e-07
5.4965e-07
5.50726e-07
5.53041e-07
9.58989e-07
7.29967e-07
5.5517e-07
8.13801e-07
7.70662e-07
7.18262e-07
6.55593e-08
3.92285e-07
3.93662e-07
3.94696e-07
3.9573e-07
3.96763e-07
3.97795e-07
3.98826e-07
3.99857e-07
4.00886e-07
4.01916e-07
4.02944e-07
4.03971e-07
4.04999e-07
4.06025e-07
4.0705e-07
4.08075e-07
4.09099e-07
4.10122e-07
4.11145e-07
4.12167e-07
4.13188e-07
4.14208e-07
4.15228e-07
4.16246e-07
4.17264e-07
4.18281e-07
4.19298e-07
4.20314e-07
4.21328e-07
4.22342e-07
4.23356e-07
4.24368e-07
4.25379e-07
4.2639e-07
4.274e-07
4.28409e-07
4.29418e-07
4.30425e-07
4.31432e-07
4.32438e-07
4.33443e-07
4.34446e-07
4.36222e-07
9.64883e-07
9.28507e-07
9.09227e-07
8.06441e-07
5.70382e-07
7.16786e-07
1.1812e-07
1.84255e-07
3.93454e-07
3.94697e-07
3.95731e-07
3.96763e-07
3.97795e-07
3.98826e-07
3.99857e-07
4.00886e-07
4.01916e-07
4.02944e-07
4.03971e-07
4.04999e-07
4.06025e-07
4.0705e-07
4.08075e-07
4.09099e-07
4.10122e-07
4.11145e-07
4.12167e-07
4.13188e-07
4.14208e-07
4.15228e-07
4.16246e-07
4.17264e-07
4.18281e-07
4.19298e-07
4.20314e-07
4.21328e-07
4.22342e-07
4.23356e-07
4.24368e-07
4.25379e-07
4.2639e-07
4.274e-07
4.28409e-07
4.29418e-07
4.30425e-07
4.31432e-07
4.32438e-07
4.33443e-07
4.34446e-07
4.36222e-07
9.69962e-07
9.37424e-07
8.97551e-07
6.80317e-07
2.20646e-07
6.66302e-07
7.72974e-07
1.83837e-07
3.93455e-07
3.94697e-07
3.95731e-07
3.96763e-07
3.97795e-07
3.98826e-07
3.99857e-07
4.00886e-07
4.01916e-07
4.02944e-07
4.03971e-07
4.04999e-07
4.06025e-07
4.0705e-07
4.08075e-07
4.09099e-07
4.10122e-07
4.11145e-07
4.12167e-07
4.13188e-07
4.14208e-07
4.15228e-07
4.16246e-07
4.17264e-07
4.18281e-07
4.19298e-07
4.20314e-07
4.21328e-07
4.22342e-07
4.23356e-07
4.24368e-07
4.25379e-07
4.2639e-07
4.274e-07
4.28409e-07
4.29418e-07
4.30425e-07
4.31432e-07
4.32438e-07
4.33443e-07
4.34446e-07
4.36222e-07
9.6845e-07
9.62495e-07
9.4643e-07
8.78783e-07
9.10672e-07
7.35235e-07
9.30578e-07
5.20064e-08
3.93455e-07
3.94697e-07
3.95731e-07
3.96763e-07
3.97795e-07
3.98826e-07
3.99857e-07
4.00886e-07
4.01916e-07
4.02944e-07
4.03971e-07
4.04999e-07
4.06025e-07
4.0705e-07
4.08075e-07
4.09099e-07
4.10122e-07
4.11145e-07
4.12167e-07
4.13188e-07
4.14208e-07
4.15228e-07
4.16246e-07
4.17264e-07
4.18281e-07
4.19298e-07
4.20314e-07
4.21328e-07
4.22342e-07
4.23356e-07
4.24368e-07
4.25379e-07
4.2639e-07
4.274e-07
4.28409e-07
4.29418e-07
4.30425e-07
4.31432e-07
4.32438e-07
4.33443e-07
4.34446e-07
4.36222e-07
9.11943e-07
9.42661e-07
7.04792e-07
8.2905e-07
5.83758e-07
6.49322e-07
9.32246e-07
6.78933e-08
3.93454e-07
3.94697e-07
3.95731e-07
3.96763e-07
3.97795e-07
3.98826e-07
3.99857e-07
4.00886e-07
4.01916e-07
4.02944e-07
4.03971e-07
4.04999e-07
4.06025e-07
4.0705e-07
4.08075e-07
4.09099e-07
4.10122e-07
4.11145e-07
4.12167e-07
4.13188e-07
4.14208e-07
4.15228e-07
4.16246e-07
4.17264e-07
4.18281e-07
4.19298e-07
4.20314e-07
4.21328e-07
4.22342e-07
4.23356e-07
4.24368e-07
4.25379e-07
4.2639e-07
4.274e-07
4.28409e-07
4.29418e-07
4.30425e-07
4.31432e-07
4.32438e-07
4.33442e-07
4.34446e-07
4.36222e-07
6.23509e-07
8.7398e-07
9.04144e-07
8.6027e-07
4.0011e-07
6.90543e-07
9.32048e-07
8.01912e-08
3.93453e-07
3.94697e-07
3.9573e-07
3.96763e-07
3.97795e-07
3.98826e-07
3.99857e-07
4.00886e-07
4.01916e-07
4.02944e-07
4.03971e-07
4.04999e-07
4.06025e-07
4.0705e-07
4.08075e-07
4.09099e-07
4.10122e-07
4.11145e-07
4.12167e-07
4.13188e-07
4.14208e-07
4.15228e-07
4.16246e-07
4.17264e-07
4.18281e-07
4.19298e-07
4.20314e-07
4.21328e-07
4.22342e-07
4.23356e-07
4.24368e-07
4.25379e-07
4.2639e-07
4.274e-07
4.28409e-07
4.29418e-07
4.30425e-07
4.31432e-07
4.32438e-07
4.33442e-07
4.34446e-07
4.36222e-07
4.34794e-07
6.93762e-07
6.36503e-07
3.74596e-07
7.11605e-07
7.37954e-07
9.30736e-07
5.90051e-08
3.93453e-07
3.94696e-07
3.9573e-07
3.96763e-07
3.97795e-07
3.98826e-07
3.99857e-07
4.00886e-07
4.01916e-07
4.02944e-07
4.03971e-07
4.04999e-07
4.06025e-07
4.0705e-07
4.08075e-07
4.09099e-07
4.10122e-07
4.11145e-07
4.12167e-07
4.13188e-07
4.14208e-07
4.15228e-07
4.16246e-07
4.17264e-07
4.18281e-07
4.19298e-07
4.20314e-07
4.21328e-07
4.22342e-07
4.23356e-07
4.24368e-07
4.25379e-07
4.2639e-07
4.274e-07
4.28409e-07
4.29418e-07
4.30425e-07
4.31432e-07
4.32438e-07
4.33443e-07
4.34446e-07
4.36222e-07
8.41116e-07
9.13571e-07
8.11449e-07
4.1918e-07
9.06622e-07
7.27513e-07
7.76032e-07
5.19867e-08
3.93453e-07
3.94696e-07
3.9573e-07
3.96763e-07
3.97795e-07
3.98826e-07
3.99857e-07
4.00886e-07
4.01916e-07
4.02944e-07
4.03971e-07
4.04999e-07
4.06025e-07
4.0705e-07
4.08075e-07
4.09099e-07
4.10122e-07
4.11145e-07
4.12167e-07
4.13188e-07
4.14208e-07
4.15228e-07
4.16246e-07
4.17264e-07
4.18281e-07
4.19298e-07
4.20314e-07
4.21328e-07
4.22342e-07
4.23356e-07
4.24368e-07
4.25379e-07
4.2639e-07
4.274e-07
4.28409e-07
4.29418e-07
4.30425e-07
4.31432e-07
4.32438e-07
4.33443e-07
4.34446e-07
4.36222e-07
9.49973e-07
9.02435e-07
8.32383e-07
7.21914e-07
8.63453e-07
4.33743e-07
7.6875e-07
1.83952e-07
3.93453e-07
3.94697e-07
3.9573e-07
3.96763e-07
3.97795e-07
3.98826e-07
3.99857e-07
4.00886e-07
4.01916e-07
4.02944e-07
4.03971e-07
4.04999e-07
4.06025e-07
4.0705e-07
4.08075e-07
4.09099e-07
4.10122e-07
4.11145e-07
4.12167e-07
4.13188e-07
4.14208e-07
4.15228e-07
4.16246e-07
4.17264e-07
4.18281e-07
4.19298e-07
4.20314e-07
4.21328e-07
4.22342e-07
4.23356e-07
4.24368e-07
4.25379e-07
4.2639e-07
4.274e-07
4.28409e-07
4.29418e-07
4.30425e-07
4.31432e-07
4.32438e-07
4.33443e-07
4.34446e-07
4.36222e-07
9.03167e-07
7.98351e-07
9.03589e-07
8.40249e-07
7.62449e-07
7.62248e-07
1.27764e-07
3.92285e-07
3.93662e-07
3.94696e-07
3.9573e-07
3.96763e-07
3.97795e-07
3.98826e-07
3.99857e-07
4.00886e-07
4.01916e-07
4.02944e-07
4.03971e-07
4.04999e-07
4.06025e-07
4.0705e-07
4.08075e-07
4.09099e-07
4.10122e-07
4.11145e-07
4.12167e-07
4.13188e-07
4.14208e-07
4.15228e-07
4.16246e-07
4.17264e-07
4.18281e-07
4.19298e-07
4.20314e-07
4.21328e-07
4.22342e-07
4.23356e-07
4.24368e-07
4.25379e-07
4.2639e-07
4.274e-07
4.28409e-07
4.29418e-07
4.30425e-07
4.31432e-07
4.32438e-07
4.33443e-07
4.34446e-07
4.36222e-07
3.02955e-07
6.83327e-07
6.91178e-07
7.14463e-07
3.81771e-07
7.19007e-07
7.65661e-07
6.9372e-07
6.71797e-07
7.00523e-07
7.18896e-07
7.68211e-07
6.96341e-07
7.74913e-07
7.00411e-07
6.86594e-07
7.0051e-07
6.63339e-07
7.75458e-07
7.08625e-07
7.75862e-07
6.99903e-07
6.89553e-07
6.99318e-07
7.37537e-07
7.73826e-07
7.19832e-07
7.62692e-07
6.96796e-07
6.80476e-07
7.00538e-07
6.27092e-07
7.73729e-07
7.38299e-07
7.76369e-07
7.00069e-07
6.76677e-07
7.00162e-07
7.12839e-07
7.77139e-07
6.86494e-07
7.76231e-07
6.8759e-07
4.71809e-07
6.9836e-07
7.45807e-07
7.50067e-07
5.67414e-07
7.6865e-07
6.99535e-07
6.45328e-07
7.0009e-07
7.41904e-07
7.75482e-07
5.535e-07
7.73453e-07
6.99498e-07
6.84775e-07
6.9663e-07
4.47464e-07
7.71315e-07
7.24144e-07
7.70599e-07
6.94907e-07
6.75012e-07
4.49649e-07
7.33708e-07
7.68274e-07
6.43089e-07
5.23129e-07
3.819e-07
7.08561e-07
7.65632e-07
7.28309e-07
3.78662e-07
7.21052e-07
7.65417e-07
7.68469e-07
6.58522e-07
7.74417e-07
6.81e-07
7.68742e-07
6.17678e-07
7.73439e-07
7.75048e-07
6.92738e-07
7.75623e-07
6.71302e-07
7.74146e-07
6.06733e-07
7.74891e-07
7.73584e-07
7.17159e-07
7.6785e-07
7.46235e-07
7.75285e-07
7.43738e-07
7.71383e-07
7.73631e-07
7.38958e-07
7.75416e-07
6.49548e-07
7.70833e-07
7.15731e-07
7.77477e-07
7.75911e-07
6.91965e-07
7.75577e-07
7.39503e-07
7.76707e-07
7.29828e-07
7.74195e-07
7.53285e-07
6.70619e-07
7.68835e-07
7.10229e-07
7.5065e-07
6.93875e-07
7.70179e-07
7.74334e-07
5.55263e-07
7.72768e-07
7.36904e-07
7.75772e-07
5.53794e-07
7.73515e-07
7.70677e-07
7.32835e-07
7.69991e-07
4.12625e-07
7.71343e-07
6.70798e-07
7.7056e-07
7.67148e-07
6.55075e-07
5.31564e-07
7.4987e-07
7.66854e-07
6.58493e-07
5.23628e-07
3.80013e-07
7.05114e-07
7.65164e-07
6.82897e-07
3.07226e-07
6.92548e-07
6.91133e-07
7.68469e-07
6.33751e-07
7.73929e-07
6.91141e-07
6.94058e-07
6.51889e-07
7.00249e-07
7.74767e-07
5.85372e-07
7.75353e-07
6.328e-07
7.00637e-07
6.06005e-07
7.00779e-07
7.74787e-07
7.38853e-07
7.68946e-07
6.786e-07
6.98355e-07
6.69644e-07
6.98681e-07
7.70137e-07
6.9452e-07
7.76087e-07
6.646e-07
6.97616e-07
5.08892e-07
7.00148e-07
7.76475e-07
7.30331e-07
7.72895e-07
6.31739e-07
7.0052e-07
6.79401e-07
6.99236e-07
7.48298e-07
7.07211e-07
7.67229e-07
6.83745e-07
6.95165e-07
6.59639e-07
6.9739e-07
7.7454e-07
5.72856e-07
7.73867e-07
6.72779e-07
7.00202e-07
5.16881e-07
7.00045e-07
7.71692e-07
6.60098e-07
7.70431e-07
5.5004e-07
6.99488e-07
6.46415e-07
6.96824e-07
7.67351e-07
6.56285e-07
5.25323e-07
6.93654e-07
6.94929e-07
6.55981e-07
4.57293e-07
8.82141e-07
8.83801e-07
8.74802e-07
7.2485e-07
8.78051e-07
9.09759e-07
9.177e-07
7.66494e-07
6.97417e-07
6.78985e-07
7.35271e-07
7.37187e-07
6.95686e-07
7.72841e-07
1.29566e-07
6.01314e-08
1.29566e-07
6.54504e-08
1.83832e-07
8.8419e-08
1.83831e-07
8.67038e-07
8.27682e-07
4.19076e-07
9.059e-07
9.00456e-07
9.01288e-07
4.49483e-07
7.39196e-07
6.92641e-07
5.70616e-07
7.69819e-07
7.6334e-07
6.45169e-07
6.84218e-07
1.29429e-07
6.94207e-07
3.5162e-08
1.18199e-07
1.83557e-07
7.67758e-07
5.19802e-08
3.66919e-07
8.91905e-07
1.63605e-07
8.37985e-07
6.37258e-07
7.83542e-07
2.95931e-07
7.68767e-07
6.95145e-07
5.00481e-07
7.46466e-07
7.65197e-07
5.80169e-07
6.97487e-07
3.52801e-08
6.98744e-07
3.98222e-08
7.72952e-07
5.19882e-08
7.76398e-07
5.88899e-08
3.14869e-07
7.55401e-07
8.20753e-07
8.99652e-07
3.38383e-07
7.29702e-07
7.78001e-07
7.68278e-07
6.96767e-07
6.76829e-07
7.3831e-07
7.68601e-07
7.12435e-07
6.96891e-07
5.33379e-08
8.97845e-07
1.997e-07
9.30738e-07
7.8853e-08
9.27698e-07
2.7013e-07
7.55403e-07
5.04084e-07
5.37523e-07
4.92942e-07
4.56966e-07
3.70449e-07
3.74621e-07
6.98976e-07
6.9446e-07
5.42144e-07
6.69262e-07
7.62458e-07
4.27939e-07
6.69269e-07
3.51049e-07
9.0313e-07
6.90729e-07
9.3249e-07
4.27964e-07
9.32455e-07
6.92426e-07
7.20748e-07
4.36398e-07
6.82326e-07
5.11378e-07
4.43246e-07
3.16297e-07
6.47621e-07
7.65614e-07
6.98503e-07
4.82111e-07
7.29846e-07
7.74449e-07
6.59124e-07
6.95111e-07
6.91445e-07
9.0225e-07
3.3564e-07
9.32438e-07
6.97557e-07
9.30943e-07
4.09445e-07
6.78469e-07
8.34978e-07
8.14705e-07
2.78624e-07
5.5414e-07
8.6477e-07
8.57968e-07
7.46208e-07
6.94587e-07
6.7388e-07
7.65757e-07
7.6903e-07
7.3113e-07
6.85144e-07
1.7976e-07
9.0269e-07
5.28411e-08
9.30165e-07
2.47158e-07
9.31598e-07
7.825e-08
6.33718e-07
5.43733e-07
2.95877e-07
6.75174e-07
7.36901e-07
5.57816e-07
2.84284e-07
7.60432e-07
6.88058e-07
6.98498e-07
6.9509e-07
7.5397e-07
7.15813e-07
6.94899e-07
4.08404e-08
6.97773e-07
3.50627e-08
7.75392e-07
6.02412e-08
7.72968e-07
5.19946e-08
1.65898e-07
8.5211e-07
8.58526e-07
8.50026e-07
2.50928e-07
9.20063e-07
9.09781e-07
6.791e-07
6.9332e-07
4.60016e-07
6.35541e-07
7.60308e-07
6.2856e-07
5.91861e-07
3.52103e-08
1.3274e-07
3.52267e-08
7.68527e-07
5.19827e-08
1.86662e-07
5.20164e-08
8.22635e-07
5.33912e-07
4.59392e-07
8.88986e-07
8.48147e-07
6.37157e-07
6.64967e-07
7.72977e-07
6.9693e-07
5.27936e-07
7.32435e-07
7.72818e-07
6.19281e-07
7.00069e-07
1.29511e-07
4.62927e-08
1.29566e-07
1.27536e-07
1.83721e-07
6.85572e-08
1.83832e-07
9.00557e-07
9.08604e-07
8.68323e-07
7.65768e-07
9.00637e-07
8.5943e-07
8.97591e-07
7.32268e-07
7.66134e-07
6.46456e-07
6.94718e-07
7.37534e-07
6.81451e-07
7.66859e-07
1.83826e-07
8.84412e-08
1.83826e-07
6.60886e-08
1.83827e-07
8.84242e-08
1.83826e-07
8.58739e-07
6.82868e-07
6.08045e-07
5.70587e-07
8.72917e-07
5.53115e-07
1.58939e-07
6.75301e-07
7.67775e-07
5.95729e-07
6.73818e-07
6.7468e-07
7.62732e-07
6.11231e-07
1.83555e-07
7.67473e-07
5.19798e-08
1.18167e-07
1.83555e-07
7.6715e-07
5.19798e-08
3.82995e-07
5.06275e-07
7.30872e-07
2.10745e-07
6.33998e-07
3.15086e-07
6.3467e-07
7.02126e-07
7.46332e-07
2.8543e-07
6.881e-07
7.27484e-07
7.39533e-07
2.96832e-07
5.19878e-08
7.76344e-07
5.89498e-08
7.72651e-07
5.19879e-08
7.76249e-07
5.89432e-08
6.85886e-07
8.6128e-07
8.61637e-07
8.32139e-07
7.35377e-07
8.25001e-07
7.43993e-07
7.36517e-07
7.54947e-07
5.98635e-07
7.17471e-07
7.3737e-07
7.54625e-07
6.0641e-07
7.90044e-08
9.27416e-07
2.69361e-07
9.30021e-07
7.89927e-08
9.2717e-07
2.69753e-07
6.92272e-07
5.64148e-07
4.01644e-07
7.61196e-07
4.93046e-07
4.65791e-07
3.7782e-07
7.18831e-07
7.39658e-07
4.27145e-07
6.83357e-07
7.08937e-07
7.37956e-07
4.70048e-07
4.2543e-07
9.3228e-07
6.75813e-07
9.32292e-07
4.25924e-07
9.3215e-07
6.75645e-07
3.96798e-07
3.09196e-07
5.48652e-07
4.13221e-07
3.9295e-07
7.66544e-07
7.61734e-07
7.58974e-07
7.63581e-07
7.16219e-07
7.05796e-07
7.59206e-07
7.66236e-07
6.84158e-07
6.83844e-07
9.30253e-07
4.07942e-07
9.31535e-07
6.82532e-07
9.30338e-07
4.0742e-07
5.62503e-07
9.14746e-07
7.75067e-07
2.78857e-07
8.43926e-07
8.61612e-07
9.03272e-07
7.16295e-07
7.44607e-07
6.19368e-07
6.85607e-07
7.20181e-07
7.40657e-07
6.00825e-07
2.47626e-07
9.31557e-07
7.8434e-08
9.30957e-07
2.47585e-07
9.3145e-07
7.84231e-08
7.12336e-07
3.97507e-07
2.58857e-07
8.381e-07
7.86714e-07
5.78829e-07
3.17604e-07
7.29493e-07
7.53366e-07
5.54174e-07
7.2331e-07
7.34945e-07
7.55173e-07
5.29357e-07
6.02831e-08
7.72737e-07
5.19942e-08
7.75813e-07
6.02835e-08
7.72755e-07
5.19942e-08
3.02972e-07
7.96406e-07
8.15934e-07
8.61764e-07
2.66736e-07
8.61458e-07
4.82967e-07
6.55088e-07
7.28178e-07
4.40016e-07
3.90471e-07
6.47696e-07
7.18032e-07
4.48709e-07
5.19823e-08
1.86888e-07
5.20159e-08
7.68502e-07
5.19823e-08
1.86998e-07
5.2016e-08
8.27758e-07
4.57541e-07
5.74115e-07
8.70055e-07
8.8866e-07
4.96744e-07
5.59952e-07
7.58877e-07
7.67638e-07
7.53086e-07
7.09557e-07
7.68383e-07
7.68339e-07
7.0664e-07
1.83717e-07
6.89498e-08
1.83827e-07
1.27758e-07
1.83717e-07
6.8663e-08
1.83827e-07
8.71788e-07
8.36924e-07
8.98444e-07
6.61544e-07
8.57652e-07
7.00367e-07
8.7423e-07
7.39201e-07
7.70255e-07
6.53213e-07
7.49998e-07
7.31745e-07
6.05777e-07
7.71934e-07
1.83832e-07
8.84145e-08
1.83831e-07
4.40876e-08
1.29567e-07
5.995e-08
1.29566e-07
7.67312e-07
5.53883e-07
1.85731e-07
5.0687e-07
6.33765e-07
5.02108e-07
6.20353e-07
7.11429e-07
7.69949e-07
5.83111e-07
7.16418e-07
6.91327e-07
7.69582e-07
6.63127e-07
1.83557e-07
7.67453e-07
5.19801e-08
8.18496e-08
1.2943e-07
6.94092e-07
3.5162e-08
4.24854e-07
4.25422e-07
2.81289e-07
2.10177e-07
3.2364e-07
3.35121e-07
4.05876e-07
7.42737e-07
7.6169e-07
7.29542e-07
6.7667e-07
7.47355e-07
7.67796e-07
7.23416e-07
5.19881e-08
7.76367e-07
5.8881e-08
6.97534e-07
3.51824e-08
6.98773e-07
3.9815e-08
4.28198e-07
9.17878e-07
7.40824e-07
8.60596e-07
6.68044e-07
8.64059e-07
7.72968e-07
7.44861e-07
7.70664e-07
6.54717e-07
7.04574e-07
7.41469e-07
7.71584e-07
6.6967e-07
7.88323e-08
9.29581e-07
2.69941e-07
9.01169e-07
5.33151e-08
9.01203e-07
2.00309e-07
3.58052e-07
4.28517e-07
2.48797e-07
8.62371e-07
8.65118e-07
6.78461e-07
1.88656e-07
7.70172e-07
7.45896e-07
6.54446e-07
6.93373e-07
7.60265e-07
7.56435e-07
7.0451e-07
4.29141e-07
9.32245e-07
6.90664e-07
9.02967e-07
3.52018e-07
9.03133e-07
6.91305e-07
4.88763e-07
8.81286e-07
9.12453e-07
8.46718e-07
7.81033e-07
8.70172e-07
8.46545e-07
7.60399e-07
7.46184e-07
6.60454e-07
6.19119e-07
7.6108e-07
7.58794e-07
6.60228e-07
6.99315e-07
9.30685e-07
4.10801e-07
9.03039e-07
6.91484e-07
9.02246e-07
3.35863e-07
8.84194e-07
7.77785e-07
8.53827e-07
8.77401e-07
8.73272e-07
8.88563e-07
8.67748e-07
7.46406e-07
7.53629e-07
6.84231e-07
7.20508e-07
7.35732e-07
7.57433e-07
7.66547e-07
2.4755e-07
9.31399e-07
7.82481e-08
9.02026e-07
1.79244e-07
9.02701e-07
5.28611e-08
8.44179e-07
8.26027e-07
4.83729e-07
9.00696e-07
8.32242e-07
7.93516e-07
5.84009e-07
7.62188e-07
7.64986e-07
5.91234e-07
7.25207e-07
7.61398e-07
7.66676e-07
5.89686e-07
6.02402e-08
7.72816e-07
5.19946e-08
6.98588e-07
4.08117e-08
6.96665e-07
3.50627e-08
2.6262e-07
7.97229e-07
4.60446e-07
7.94282e-07
9.24641e-08
8.92266e-07
4.06548e-07
7.61261e-07
7.13801e-07
3.42444e-07
4.37722e-07
7.44941e-07
7.34123e-07
3.70478e-07
5.19826e-08
1.86867e-07
5.20164e-08
6.96077e-07
3.5143e-08
1.3238e-07
3.52277e-08
8.72651e-07
3.88217e-07
5.60671e-07
6.35498e-07
6.30044e-07
5.26903e-07
5.63657e-07
7.65433e-07
7.60659e-07
6.05971e-07
7.65489e-07
7.62957e-07
7.59768e-07
5.96203e-07
1.83721e-07
6.85613e-08
1.83832e-07
8.88449e-08
1.29511e-07
4.62492e-08
1.29567e-07
7.72648e-07
6.98308e-07
3.49782e-07
3.8706e-07
4.32639e-07
6.98653e-07
7.72922e-07
7.66391e-07
6.74582e-07
6.9373e-07
7.7031e-07
6.88745e-07
7.64152e-07
6.91644e-07
7.7147e-07
4.15691e-07
6.97132e-07
7.65029e-07
4.98252e-07
7.71784e-07
6.97696e-07
7.57344e-07
7.30263e-07
7.70741e-07
7.15338e-07
7.13413e-07
7.48186e-07
7.7253e-07
7.70316e-07
3.8257e-07
7.70989e-07
4.21666e-07
4.23829e-07
7.68083e-07
7.71967e-07
7.62255e-07
7.47808e-07
6.4326e-07
7.66942e-07
6.46344e-07
7.60036e-07
7.59646e-07
7.70959e-07
7.65384e-07
4.75892e-07
7.68631e-07
4.84742e-07
7.7011e-07
7.70714e-07
7.73591e-07
6.97708e-07
6.96832e-07
7.68021e-07
7.72548e-07
7.71983e-07
6.99198e-07
7.61864e-07
6.44251e-07
6.92487e-07
7.20385e-07
6.4264e-07
7.68871e-07
6.96667e-07
7.74526e-07
6.9998e-07
6.99529e-07
7.75975e-07
7.75843e-07
7.73948e-07
6.99562e-07
7.19303e-07
7.73598e-07
7.66188e-07
6.44413e-07
7.62278e-07
6.47994e-07
7.01187e-07
7.70601e-07
7.67995e-07
7.69278e-07
7.71334e-07
7.70898e-07
7.71379e-07
7.67615e-07
7.52686e-07
7.0778e-07
5.97441e-07
7.58835e-07
6.04787e-07
7.64121e-07
7.38116e-07
7.71214e-07
7.75455e-07
7.7517e-07
7.67912e-07
7.75398e-07
7.71537e-07
7.72037e-07
7.69452e-07
6.99913e-07
7.00554e-07
7.76143e-07
7.74541e-07
7.76086e-07
6.98428e-07
6.47164e-07
3.6831e-07
6.96892e-07
7.48991e-07
4.34009e-07
7.68352e-07