/*--------------------------------*- C++ -*----------------------------------*\
| =========                 |                                                 |
| \\      /  F ield         | OpenFOAM: The Open Source CFD Toolbox           |
|  \\    /   O peration     | Version:  5.0                                   |
|   \\  /    A nd           | Web:      www.OpenFOAM.org                      |
|    \\/     M anipulation  |                                                 |
\*---------------------------------------------------------------------------*/
FoamFile
{
    version     2.0;
    format      ascii;
    class       volVectorField;
    location    "3.9";
    object      U;
}
// * * * * * * * * * * * * * * * * * * * * * * * * * * * * * * * * * * * * * //

dimensions      [0 1 -1 0 0 0 0];

internalField   nonuniform List<vector> 
8094
(
(-0.00123371 0.000689377 0.000598529)
(0.000354338 -0.00186308 3.43399e-05)
(0.00891563 -0.00557632 0.000764377)
(-0.00997574 0.00127695 0.000109871)
(0.00924783 0.00608052 -0.000178531)
(0.00223854 0.00221812 7.33484e-05)
(0.000467731 3.17242e-05 4.52591e-05)
(0.000848411 -4.30059e-06 -2.22193e-06)
(0.000805965 1.9018e-05 -2.60129e-07)
(0.000807414 3.33415e-06 -2.25786e-08)
(0.000808818 2.37533e-06 8.70072e-08)
(0.000808653 8.11314e-07 5.78498e-08)
(0.00080913 4.78947e-07 -1.31166e-09)
(0.000808242 5.88664e-07 7.71589e-08)
(0.000806626 3.60367e-07 4.92684e-08)
(0.000805586 2.55083e-07 2.16389e-08)
(0.000804502 9.44808e-08 5.23989e-08)
(0.000802872 1.76299e-07 6.38485e-08)
(0.000800966 -3.84743e-08 6.31751e-08)
(0.000799707 -3.45278e-07 1.18298e-07)
(0.000798575 -2.1908e-07 5.90225e-08)
(0.000797067 -5.18799e-08 7.68238e-08)
(0.000795513 -2.33239e-07 -1.01593e-08)
(0.00079395 -1.27278e-07 4.44346e-08)
(0.000792447 -1.79257e-08 -6.12703e-09)
(0.000791037 1.70159e-07 5.5898e-08)
(0.000789639 1.222e-07 6.03853e-08)
(0.000788327 4.91527e-08 4.72447e-08)
(0.000786613 1.20203e-07 3.01001e-08)
(0.000784973 -9.79871e-09 6.22135e-08)
(0.000783446 -4.35608e-07 7.72648e-08)
(0.000781791 -5.14701e-07 7.21363e-08)
(0.000780426 -4.16376e-07 8.1773e-08)
(0.000779153 -1.70884e-07 5.14594e-08)
(0.000777813 6.19488e-08 5.91066e-08)
(0.00077623 1.68496e-07 7.69493e-08)
(0.000774517 2.0863e-07 3.6891e-08)
(0.000772752 3.10179e-07 3.20821e-08)
(0.000771974 6.43823e-07 8.5115e-08)
(0.000770984 2.01849e-07 4.84112e-08)
(0.000769156 3.17223e-08 2.62499e-08)
(0.000767631 3.63396e-09 7.22475e-08)
(0.00076655 -2.6269e-07 5.86108e-08)
(0.000765008 -3.66218e-07 2.01627e-08)
(0.00076329 -1.61543e-07 3.57647e-08)
(0.000761806 -1.26448e-07 5.95751e-08)
(0.000760644 3.39341e-08 4.98261e-08)
(0.000759602 -1.09226e-07 5.73962e-08)
(0.000757847 -3.83683e-07 4.55721e-08)
(0.000756254 -3.34913e-07 1.36556e-08)
(0.00834271 0.0043798 -0.000321479)
(-0.00621693 0.00727299 0.000486794)
(-0.00330114 0.00485969 -0.00304157)
(0.0149792 0.00526962 -0.00239004)
(0.00224997 -0.0104452 0.000797667)
(0.00138759 -0.00109782 -3.51123e-05)
(0.000744451 -1.91763e-05 1.18766e-05)
(0.000381562 -1.43827e-06 -9.26681e-07)
(0.000835546 1.58972e-06 -1.03627e-06)
(0.000788785 -5.75973e-06 -2.45599e-07)
(0.000807437 -2.73645e-06 1.82244e-07)
(0.000807557 -1.86912e-06 4.76848e-08)
(0.000808528 -1.10196e-06 5.41063e-08)
(0.000807918 -9.76571e-07 5.02497e-08)
(0.000807082 -5.40851e-07 4.99582e-08)
(0.000805665 -2.80216e-07 3.46684e-08)
(0.000804161 -3.08849e-08 3.93848e-08)
(0.000802858 3.28858e-08 5.00199e-08)
(0.00080141 3.23119e-07 4.57272e-08)
(0.000799964 3.08102e-07 2.84822e-08)
(0.000798477 2.27976e-07 2.34877e-08)
(0.000796727 1.91413e-07 6.27054e-08)
(0.000795269 2.88702e-07 1.6715e-07)
(0.000794227 2.71463e-07 4.98978e-08)
(0.000792771 1.21625e-07 6.08498e-08)
(0.000790924 6.3947e-08 8.63479e-08)
(0.000789359 2.56588e-08 4.93734e-08)
(0.000788057 -2.07438e-07 4.87018e-08)
(0.000786604 -6.69384e-07 9.0934e-08)
(0.000784647 -6.91512e-07 7.83572e-08)
(0.000783053 -4.50942e-07 -1.4299e-07)
(0.000781885 -2.23971e-07 1.2158e-08)
(0.000780688 2.89613e-07 1.25413e-07)
(0.000779625 2.88255e-07 1.20443e-07)
(0.000777952 6.65241e-08 4.75949e-08)
(0.000776276 8.07527e-08 3.30709e-08)
(0.000775027 1.37e-07 4.19636e-08)
(0.000773847 3.84271e-07 4.89134e-09)
(0.000771824 7.22506e-07 1.754e-08)
(0.000769958 3.66959e-07 2.44884e-07)
(0.000768848 1.48849e-07 6.19023e-08)
(0.000767426 4.23933e-08 7.1403e-08)
(0.000765927 -7.90295e-08 1.29803e-08)
(0.000764907 -3.26892e-07 8.63356e-08)
(0.000763677 -2.95838e-08 5.40924e-08)
(0.000762181 2.67192e-08 5.67486e-08)
(0.000760732 3.68127e-07 5.34679e-08)
(0.000759152 7.87034e-08 -3.86016e-08)
(0.00075777 -8.64451e-08 -7.39173e-08)
(0.000756761 -1.6515e-07 1.09123e-07)
(-0.000992762 0.00420113 0.000412539)
(0.00069101 -0.00430869 0.000378392)
(0.0086666 0.00893943 -0.000987444)
(-0.0121909 -0.0078139 0.000220705)
(-0.0441083 -0.00872057 0.00293614)
(0.0193453 0.00534717 -0.000184812)
(0.0011811 -0.00040112 0.00010915)
(0.00046407 -5.00313e-05 -8.38484e-07)
(0.000857547 -2.73504e-05 -2.1982e-06)
(0.000801974 -1.46046e-05 -3.92282e-07)
(0.000813716 -7.92922e-06 1.55467e-07)
(0.000810716 -4.47295e-06 3.8911e-08)
(0.000810259 -2.66219e-06 5.8134e-08)
(0.000808953 -1.60083e-06 5.37167e-08)
(0.000807504 -9.75601e-07 5.53951e-08)
(0.000806228 -7.15344e-07 5.6368e-08)
(0.000804896 -4.23149e-07 -2.93716e-08)
(0.000803315 -3.00908e-07 5.87888e-08)
(0.000801309 -2.64739e-07 1.02708e-07)
(0.000799587 -1.00829e-07 4.06001e-08)
(0.000798427 -4.52913e-08 3.18157e-08)
(0.00079714 9.64204e-09 4.62049e-08)
(0.00079561 2.70209e-07 6.30997e-08)
(0.000793737 2.46173e-07 8.34601e-08)
(0.000792185 7.89657e-08 4.84698e-08)
(0.000790916 -1.91075e-08 2.87634e-08)
(0.0007893 2.13415e-08 4.65628e-08)
(0.000787461 -3.50445e-08 5.39397e-08)
(0.000786012 -1.05478e-07 1.48368e-08)
(0.000785252 8.6921e-08 1.85393e-08)
(0.000784034 3.8906e-07 2.09511e-07)
(0.000782717 5.03697e-07 5.06582e-08)
(0.000781065 6.15009e-07 -4.22131e-09)
(0.000778871 3.22488e-07 1.37124e-08)
(0.000777552 3.45541e-08 6.59922e-08)
(0.000776317 9.00788e-08 5.27789e-08)
(0.000774895 5.56817e-08 5.39693e-08)
(0.00077348 -4.78472e-08 5.17898e-08)
(0.000771948 -2.16174e-07 2.52494e-08)
(0.000770263 7.98828e-08 5.73148e-08)
(0.000768749 9.7336e-08 6.58886e-08)
(0.000767346 6.95273e-08 5.94285e-08)
(0.000766091 4.36565e-07 7.28477e-08)
(0.000765073 4.26176e-07 9.50228e-08)
(0.000763735 2.9887e-07 1.68623e-08)
(0.000762303 2.86262e-07 1.1925e-07)
(0.000760709 3.02047e-07 7.3029e-08)
(0.000759034 4.27115e-07 8.01902e-08)
(0.000757547 2.49039e-07 5.61819e-08)
(0.000756565 1.37327e-07 1.00387e-07)
(0.0102266 0.00145191 -1.45699e-05)
(-0.00578892 -0.000881765 -2.70465e-05)
(-0.00841486 -0.00919013 -1.88982e-05)
(0.00448736 0.00491298 -1.80575e-05)
(0.0240665 0.0098582 -3.22626e-05)
(-0.00607112 0.000764692 2.21979e-05)
(0.00180348 -0.000676265 -2.84873e-05)
(0.000412025 -2.81309e-05 1.19689e-05)
(0.000878832 -1.82037e-05 -1.51718e-06)
(0.00081352 -1.04927e-05 -3.86948e-07)
(0.000820134 -6.41759e-06 1.59027e-07)
(0.000814157 -3.80826e-06 -3.09514e-09)
(0.000812127 -2.53705e-06 6.07653e-08)
(0.000810031 -1.47557e-06 5.38395e-08)
(0.000808192 -7.1085e-07 4.96825e-08)
(0.000806358 -3.48426e-07 4.99883e-08)
(0.00080468 -4.48225e-07 4.62638e-08)
(0.000803058 -4.58488e-07 4.50397e-08)
(0.000801662 -5.13206e-07 2.87404e-08)
(0.00080024 -3.40465e-07 2.89279e-08)
(0.000798616 -1.76457e-07 8.64347e-08)
(0.000797121 -1.75782e-07 5.11748e-08)
(0.000795563 -2.14567e-07 4.61396e-08)
(0.000793986 -1.61663e-07 6.26269e-08)
(0.000792438 2.66966e-08 2.69792e-08)
(0.000790852 1.55657e-07 3.00133e-08)
(0.000789339 2.14247e-07 6.23262e-08)
(0.000787899 4.61561e-07 5.36214e-08)
(0.000786756 8.0909e-07 2.92973e-08)
(0.000785263 8.02787e-07 4.95235e-08)
(0.000783569 4.00202e-07 6.56839e-08)
(0.000782162 4.4348e-07 7.17611e-08)
(0.000780457 -2.38577e-07 2.46982e-08)
(0.000778897 -1.22571e-07 4.99391e-08)
(0.00077766 5.01794e-08 4.7541e-08)
(0.000776301 2.28037e-08 1.25891e-07)
(0.000774855 5.36396e-09 3.44494e-08)
(0.000773507 -9.07307e-08 4.35798e-08)
(0.000771984 -2.708e-07 2.00869e-08)
(0.00077035 -3.42655e-07 4.11749e-08)
(0.000768834 -3.78265e-08 3.25217e-08)
(0.000767847 2.17161e-07 1.66055e-07)
(0.000766369 3.13622e-07 1.47083e-07)
(0.000764731 3.89411e-07 -3.11636e-09)
(0.000763498 5.66497e-08 3.21063e-08)
(0.000762181 4.82044e-08 4.17819e-08)
(0.000760904 3.54425e-08 7.31656e-08)
(0.000759083 2.98469e-07 4.00766e-08)
(0.000757404 1.5967e-07 4.33537e-08)
(0.000756278 2.47298e-07 1.63325e-07)
(-0.00730072 -0.000966637 0.00035719)
(-0.00742407 0.00872057 8.82791e-05)
(-0.00104299 -0.00540117 -5.94887e-05)
(0.000107081 0.00660161 0.000253253)
(-0.00169014 -0.0120029 0.00016541)
(0.00268866 -0.0111329 0.00017235)
(0.0007796 0.000580824 1.23166e-05)
(0.000518869 -0.000104386 4.69844e-05)
(0.000876387 -4.44843e-06 -1.22843e-06)
(0.000816244 -3.41036e-06 -4.45072e-07)
(0.000822057 -2.82636e-06 1.67642e-07)
(0.000815556 -2.10725e-06 1.39676e-08)
(0.000813168 -1.1828e-06 9.446e-08)
(0.00081123 -9.27565e-07 5.45771e-08)
(0.000808908 -8.78021e-07 3.48301e-08)
(0.000806553 -6.71253e-07 1.18612e-08)
(0.000804757 -3.36894e-07 5.17562e-08)
(0.000803234 -2.2239e-07 5.22086e-08)
(0.000801458 -4.65733e-08 2.34789e-07)
(0.00080001 7.06468e-08 -5.39535e-08)
(0.000798635 -2.57783e-07 6.63469e-08)
(0.000797094 -1.88858e-09 5.87695e-08)
(0.00079563 -5.39362e-08 4.29846e-08)
(0.00079404 -2.01718e-09 9.1362e-08)
(0.000792582 1.2282e-08 6.95005e-08)
(0.000791149 -3.25996e-08 6.5378e-08)
(0.000789679 1.62165e-07 6.6616e-08)
(0.000788199 2.81663e-07 3.90703e-08)
(0.000786431 4.06763e-07 2.39664e-07)
(0.000784732 3.49786e-07 3.3418e-08)
(0.000783578 1.38255e-07 5.40656e-08)
(0.000781915 -2.40715e-07 4.15478e-08)
(0.000780355 -1.34558e-07 5.00521e-08)
(0.000779231 -1.6717e-08 5.06972e-08)
(0.000777733 9.31479e-08 5.05899e-08)
(0.00077626 -9.47011e-09 4.55467e-08)
(0.000774753 -6.20896e-08 -4.79214e-08)
(0.000773136 -1.05716e-07 6.9482e-08)
(0.000771635 -2.01775e-07 4.54352e-08)
(0.000770556 -2.55015e-07 8.69397e-08)
(0.000769449 -1.0319e-07 4.80518e-08)
(0.000767783 8.64417e-08 1.15952e-07)
(0.000766302 -1.59584e-07 4.14372e-08)
(0.000764748 -3.09925e-08 -1.10162e-07)
(0.000763306 -1.55906e-07 1.56588e-07)
(0.000762276 -2.36665e-07 5.02089e-08)
(0.000761021 -5.45926e-07 9.77582e-09)
(0.000759188 -8.78026e-07 4.1488e-08)
(0.000757477 -3.45275e-07 6.03651e-08)
(0.00075606 1.70705e-08 5.45786e-08)
(-0.00683284 -0.00333382 6.14368e-05)
(0.00292446 0.00804802 -0.000850411)
(-0.00295461 -0.00657259 0.000123829)
(0.000243446 -0.0014829 4.77605e-05)
(0.00835857 -0.000728184 0.00221885)
(-8.17624e-05 0.00333509 -0.000684415)
(0.000875402 0.000296208 -1.06659e-05)
(0.000546024 2.45112e-05 3.37582e-05)
(0.000866911 9.60841e-07 -1.47967e-06)
(0.000815674 6.47792e-07 -4.41596e-07)
(0.000821703 2.99545e-07 1.74666e-07)
(0.000816176 4.68643e-08 3.05304e-08)
(0.000813581 2.03589e-07 7.36306e-08)
(0.0008104 -5.72117e-08 4.89015e-08)
(0.000808506 -3.34598e-07 7.03022e-08)
(0.000807031 -3.62674e-07 7.89798e-08)
(0.000805239 -2.02167e-07 5.0831e-08)
(0.000803419 -1.06111e-07 5.46736e-08)
(0.000802026 -1.3165e-07 1.95703e-08)
(0.000799975 1.8736e-07 8.0999e-08)
(0.000798524 3.91478e-07 -2.03938e-08)
(0.000797376 2.62178e-07 4.75131e-08)
(0.000795562 2.26018e-07 8.15803e-08)
(0.000794069 1.48109e-07 6.11112e-08)
(0.0007924 1.62498e-07 4.82449e-08)
(0.000791039 1.24583e-07 1.65268e-08)
(0.000789731 -6.07321e-08 3.96596e-08)
(0.000788202 -2.12849e-07 1.04712e-08)
(0.000786838 -1.33439e-07 2.59655e-08)
(0.000784925 -4.59974e-07 -1.34185e-07)
(0.00078283 -3.65866e-07 1.80114e-08)
(0.00078182 -3.33257e-07 -1.12244e-08)
(0.000780738 -1.03903e-07 1.72615e-08)
(0.00077918 -9.47106e-08 5.49483e-08)
(0.000777669 -1.26179e-07 -3.58715e-09)
(0.000776107 -5.68207e-08 4.29517e-08)
(0.000774735 -9.91914e-09 5.90393e-08)
(0.000773334 1.58513e-07 5.80672e-08)
(0.000771799 1.38062e-07 5.42967e-08)
(0.000770474 2.8552e-08 4.07649e-08)
(0.000769261 6.82138e-08 8.22589e-08)
(0.000767777 -1.13522e-07 1.78834e-07)
(0.000766223 3.4654e-08 5.01051e-08)
(0.000764737 -1.5322e-07 3.10749e-08)
(0.000763243 -6.56047e-08 3.65867e-08)
(0.000761698 -2.07066e-07 4.44539e-08)
(0.000760107 -5.27511e-07 -6.82152e-08)
(0.000759339 -7.27035e-07 -1.13329e-07)
(0.000758524 -4.76117e-07 8.8943e-08)
(0.000756689 -3.20514e-07 1.21661e-07)
(-0.011867 0.0132578 0.000356904)
(0.0038367 -0.00835741 0.000662783)
(0.000546996 -0.000212388 0.00109952)
(-0.0236844 0.0101365 -0.000739224)
(0.00632976 -0.000381633 -0.000774815)
(-0.00219287 -0.00215896 0.000489791)
(0.00197052 0.00144775 1.77506e-05)
(0.000524824 9.67308e-05 4.89213e-05)
(0.00087253 5.28226e-06 -1.7836e-06)
(0.000814854 4.60445e-06 -3.85414e-07)
(0.000821239 2.98867e-06 1.40453e-07)
(0.000815395 2.10744e-06 3.01192e-08)
(0.000813013 1.12069e-06 5.23959e-08)
(0.000810543 7.79102e-07 5.08715e-08)
(0.000808518 6.29009e-07 5.6703e-08)
(0.000806714 4.67849e-07 5.42005e-08)
(0.000805076 2.05711e-07 5.24607e-08)
(0.000803321 7.7382e-08 5.57581e-08)
(0.000801823 7.53748e-09 7.74308e-08)
(0.000800661 -5.88335e-08 6.75687e-08)
(0.000798725 3.53708e-07 1.12273e-07)
(0.000796884 7.27577e-08 4.28764e-08)
(0.000795485 1.37419e-07 -3.7814e-08)
(0.000793959 4.85385e-08 5.29265e-08)
(0.000792552 7.11125e-08 1.88511e-08)
(0.000790869 1.21344e-07 8.31513e-08)
(0.000789258 -1.00166e-07 6.17808e-08)
(0.000788109 -2.57043e-07 7.77617e-08)
(0.000786125 -7.16932e-07 -4.42124e-08)
(0.000784445 -8.67841e-07 1.14514e-07)
(0.000783741 -5.60899e-07 -6.35863e-08)
(0.000782246 -5.4992e-08 1.58263e-07)
(0.000780656 -1.31082e-08 3.85362e-08)
(0.000779205 -5.838e-08 6.35826e-08)
(0.000777781 -1.21813e-07 7.45702e-08)
(0.000776407 -4.56062e-08 5.56149e-08)
(0.000775023 6.30674e-09 4.57096e-08)
(0.000773321 -1.46166e-07 2.29422e-08)
(0.000771472 4.80473e-08 3.53536e-08)
(0.000770468 3.75272e-07 -2.25593e-08)
(0.000769271 1.4583e-07 4.41682e-08)
(0.000767742 1.84535e-08 -3.03959e-09)
(0.000766254 -1.41624e-07 6.42831e-08)
(0.000764624 -1.11475e-07 4.602e-08)
(0.00076324 -3.74373e-08 2.3983e-08)
(0.000761701 1.58441e-08 4.93668e-08)
(0.000760376 1.37932e-08 8.27633e-08)
(0.000759258 1.56791e-07 4.29818e-08)
(0.000757995 -2.14728e-07 3.93822e-08)
(0.000757053 -2.97411e-07 4.17118e-08)
(0.0336159 -0.0101519 -0.00209394)
(-0.00229312 -0.00417408 -0.000351545)
(-0.0166262 0.00623691 0.000570256)
(-0.00254755 0.00655474 0.00109494)
(0.0273912 0.00982342 -0.00390918)
(-0.0471146 0.000691005 -0.00097032)
(0.000489702 0.000847966 -3.02559e-05)
(0.000311324 1.91549e-05 2.67845e-06)
(0.000862966 1.62885e-05 -2.07909e-06)
(0.000812894 9.83477e-06 -3.96586e-07)
(0.000818536 5.85133e-06 1.06463e-07)
(0.000813814 3.60965e-06 2.26818e-08)
(0.000811903 2.20582e-06 4.93779e-08)
(0.000809775 1.35248e-06 4.70318e-08)
(0.000808109 8.98604e-07 4.24207e-08)
(0.000806497 5.36522e-07 5.03545e-08)
(0.000804748 3.7577e-07 1.1294e-07)
(0.000803169 2.92473e-07 1.50282e-07)
(0.000801855 3.49141e-07 1.3744e-07)
(0.000800406 7.3728e-08 6.65133e-08)
(0.000798688 -1.79978e-07 4.48836e-08)
(0.000797104 -3.82274e-08 5.61719e-08)
(0.000795532 -2.18337e-07 3.96298e-08)
(0.000793986 -1.38599e-07 4.7908e-08)
(0.00079249 -3.46e-07 5.68003e-08)
(0.000790825 -2.92359e-07 -1.26218e-07)
(0.000789258 -6.58614e-08 -1.31324e-07)
(0.000787434 -9.52563e-08 2.11651e-07)
(0.00078608 -2.078e-07 1.11288e-07)
(0.000785126 3.92284e-07 7.44869e-08)
(0.000783851 5.19994e-07 9.85252e-08)
(0.000782507 2.01964e-07 1.1654e-07)
(0.000780734 1.31385e-07 4.2451e-08)
(0.000779045 1.80866e-07 -4.64571e-09)
(0.000777686 8.28044e-08 3.98311e-08)
(0.000776268 -4.08622e-08 3.73673e-08)
(0.00077461 -1.35358e-07 1.95285e-08)
(0.000773386 -3.13746e-07 7.4756e-08)
(0.000772449 -7.0713e-09 4.41024e-08)
(0.000770595 2.23029e-07 1.13924e-07)
(0.000768813 2.91895e-08 1.8708e-07)
(0.000767418 1.38019e-07 4.85946e-08)
(0.000766061 -1.91861e-08 3.37085e-08)
(0.000764868 3.66594e-08 5.18482e-08)
(0.000763402 4.03758e-08 4.48259e-08)
(0.000761762 9.97214e-08 4.58456e-08)
(0.000760284 4.72672e-07 4.09345e-08)
(0.000759054 3.22213e-07 5.25716e-08)
(0.000757965 1.70513e-07 -2.26677e-08)
(0.000757327 -5.37915e-08 6.3999e-08)
(-7.036e-05 0.00254214 -0.000233746)
(0.00810074 -0.00690588 3.73044e-05)
(-0.00193147 -0.00164194 0.000781042)
(0.0134098 0.0185002 0.000794891)
(0.00166012 0.00285291 -2.37926e-05)
(-0.00373481 -0.00723793 -0.000509556)
(0.00125515 -0.00105767 9.9819e-05)
(0.000454953 4.47302e-05 3.48523e-07)
(0.000853149 8.28243e-06 -1.20066e-06)
(0.000801492 1.00737e-05 -4.35595e-07)
(0.000813445 5.39148e-06 1.66907e-07)
(0.000810831 3.66146e-06 3.43865e-08)
(0.000810187 2.24535e-06 5.23078e-08)
(0.000808906 1.16063e-06 5.10496e-08)
(0.000807497 8.64246e-07 6.88834e-08)
(0.000806059 6.63666e-07 1.20135e-07)
(0.000804769 4.59852e-07 9.18924e-08)
(0.000803286 2.69617e-07 7.71935e-08)
(0.000801549 3.42249e-07 -5.69097e-09)
(0.0008 4.34294e-07 6.29016e-08)
(0.000798586 1.68447e-07 4.93987e-08)
(0.000796839 -2.86313e-08 8.09412e-08)
(0.000795362 -1.20453e-07 3.54566e-08)
(0.000793803 -1.65416e-07 5.33028e-08)
(0.000792362 -1.44435e-07 1.06455e-08)
(0.000791222 -2.39796e-07 1.98196e-08)
(0.000789507 -2.05541e-07 2.16346e-08)
(0.000787934 -3.87287e-08 7.93628e-08)
(0.000786734 2.95443e-07 6.43243e-08)
(0.000785354 4.40933e-07 -2.27065e-08)
(0.0007835 4.69192e-07 -3.43724e-09)
(0.000781757 3.06711e-07 4.13827e-08)
(0.000780628 -5.09681e-08 -3.40753e-07)
(0.000779143 -7.65063e-08 6.1697e-08)
(0.000777504 -6.78381e-08 2.28326e-08)
(0.000776134 -2.03498e-07 4.42132e-08)
(0.000774683 -2.08529e-07 6.78801e-08)
(0.000773482 -1.04499e-08 4.92883e-08)
(0.000772143 -2.73921e-07 1.01232e-07)
(0.000770513 -4.01988e-07 3.65945e-08)
(0.000769164 -1.71698e-07 5.5707e-08)
(0.000767681 -1.78056e-07 -9.68767e-09)
(0.000766127 1.27334e-07 6.69348e-08)
(0.000764698 8.25098e-08 4.07889e-08)
(0.000763319 5.60168e-08 5.79243e-08)
(0.00076224 6.10082e-08 4.98187e-08)
(0.000760651 1.96152e-07 2.04466e-08)
(0.000758877 4.03347e-07 3.84225e-08)
(0.000757524 6.94647e-07 -7.50851e-08)
(0.000756905 4.77927e-07 8.83315e-08)
(0.00241395 0.00855645 0.00014315)
(0.0020019 0.00420685 9.60242e-05)
(0.00370933 0.00602313 0.000235193)
(-0.00202799 -0.000928684 0.000175085)
(0.00160789 0.00878582 6.29716e-06)
(-0.00417158 0.00303511 -0.000319033)
(0.000751021 4.72644e-06 6.85898e-06)
(0.000841838 3.54039e-05 -2.31683e-06)
(0.00080927 -1.67225e-06 -1.19017e-07)
(0.000809462 5.77206e-06 3.71792e-09)
(0.000810551 3.00334e-06 9.34518e-08)
(0.000809902 2.02088e-06 7.73739e-08)
(0.000808788 1.2296e-06 6.20481e-08)
(0.000808056 1.15688e-06 7.42556e-08)
(0.000807492 6.87695e-07 5.30425e-08)
(0.000805994 4.54794e-07 5.51101e-08)
(0.000804257 3.05507e-07 4.81749e-08)
(0.000803023 2.39239e-07 9.92511e-08)
(0.000802061 -2.74037e-08 8.90774e-08)
(0.000800188 -2.28725e-07 -1.45308e-08)
(0.000798109 -2.63019e-07 8.93415e-08)
(0.000796744 -2.39582e-07 1.91617e-07)
(0.000795363 -8.18164e-08 5.20563e-08)
(0.000793958 -1.1931e-07 4.14216e-08)
(0.0007924 3.51812e-08 8.43671e-08)
(0.000790751 -5.18282e-08 3.28119e-08)
(0.000789513 -1.13312e-07 5.08275e-08)
(0.000788061 5.39819e-08 5.13956e-08)
(0.000786678 2.01532e-07 9.79838e-08)
(0.000785341 -4.35845e-08 3.44194e-08)
(0.00078368 -1.03388e-07 1.05014e-07)
(0.000781856 -8.82163e-08 -2.01852e-08)
(0.000780256 -7.85189e-08 -5.38539e-08)
(0.000779026 -2.51839e-07 3.22089e-08)
(0.000777529 -7.33286e-08 7.35867e-08)
(0.000776094 -5.87336e-09 5.57626e-10)
(0.000774853 2.91259e-09 8.792e-09)
(0.000773307 -1.38309e-07 4.88759e-08)
(0.000771963 -5.82697e-07 5.47079e-08)
(0.000770726 -2.75885e-07 5.85856e-08)
(0.000769097 -2.08426e-07 5.70845e-08)
(0.000767793 -2.84051e-07 8.68562e-08)
(0.000766388 -2.5006e-07 1.56034e-08)
(0.000764779 5.40413e-08 2.53311e-08)
(0.000763375 -1.83698e-09 -8.91087e-09)
(0.000761935 3.2421e-08 4.45762e-08)
(0.000760708 -3.4873e-07 2.34876e-08)
(0.000759672 2.76495e-08 3.20919e-08)
(0.000758044 2.3238e-07 1.12496e-08)
(0.000755866 2.92158e-07 6.55137e-08)
(-0.00262621 0.00371899 0.00040681)
(-0.0200067 -0.00307059 -0.00122061)
(-0.0145221 -0.00971015 0.000828743)
(-0.0148099 0.00841226 0.00476902)
(-0.00574992 -1.2131e-05 0.00341992)
(0.00159026 0.00526074 -0.000133603)
(0.00118783 0.000119362 6.59845e-05)
(0.00142829 -1.79278e-05 3.18571e-07)
(0.0013549 2.66851e-05 3.03477e-07)
(0.00135375 2.85877e-06 3.4981e-07)
(0.001354 2.35874e-06 3.85233e-07)
(0.00135235 3.81486e-07 3.59205e-07)
(0.00135226 1.882e-07 2.60908e-07)
(0.00135026 5.6047e-07 3.49959e-07)
(0.00134728 3.39511e-07 3.46465e-07)
(0.0013453 2.66027e-07 2.71659e-07)
(0.00134331 5.30528e-08 3.38139e-07)
(0.00134056 2.15933e-07 3.49226e-07)
(0.0013374 -9.95671e-08 3.8379e-07)
(0.00133523 -5.41856e-07 4.18835e-07)
(0.00133329 -3.21633e-07 3.26671e-07)
(0.00133069 -3.18555e-09 3.82599e-07)
(0.0013281 -2.50349e-07 2.46523e-07)
(0.00132557 -1.36308e-07 2.88734e-07)
(0.00132306 7.36068e-08 2.11796e-07)
(0.00132069 3.93271e-07 3.03845e-07)
(0.00131838 2.89216e-07 3.59063e-07)
(0.00131623 1.07973e-07 3.30393e-07)
(0.00131332 2.35505e-07 3.22779e-07)
(0.00131052 -1.08156e-07 3.38886e-07)
(0.00130802 -8.46502e-07 3.55168e-07)
(0.00130523 -8.9039e-07 2.65916e-07)
(0.001303 -6.89321e-07 3.67308e-07)
(0.00130099 -2.60811e-07 2.93446e-07)
(0.00129875 1.4696e-07 4.7424e-07)
(0.00129609 3.41034e-07 3.42415e-07)
(0.0012932 3.65547e-07 3.09058e-07)
(0.00129028 5.18445e-07 2.80619e-07)
(0.00128888 1.06458e-06 2.90598e-07)
(0.00128723 4.27287e-07 3.20161e-07)
(0.0012843 7.66932e-08 2.84868e-07)
(0.00128175 4.56568e-09 3.49617e-07)
(0.00127997 -4.53689e-07 3.67178e-07)
(0.00127737 -5.54805e-07 2.44134e-07)
(0.00127458 -2.91387e-07 3.13466e-07)
(0.00127212 -2.80321e-07 3.27628e-07)
(0.00127008 -7.87596e-09 2.70335e-07)
(0.00126835 -2.58893e-07 3.22105e-07)
(0.00126541 -6.31082e-07 3.48462e-07)
(0.00126268 -5.38501e-07 2.37129e-07)
(0.00419421 -0.00419052 -0.000123061)
(0.0146266 -0.00175857 -0.00190458)
(-0.000256228 0.00288604 0.0478944)
(-0.0273811 -0.0615926 0.00485738)
(0.000698867 -0.00511117 -5.00849e-06)
(-0.00457761 -0.0166603 0.000702855)
(0.000409983 -7.05004e-05 -9.29539e-06)
(0.00118721 -6.69138e-06 6.38642e-07)
(0.00140752 4.47796e-06 4.06189e-07)
(0.0013242 -8.16454e-06 5.01066e-07)
(0.00135216 -3.65951e-06 3.38706e-07)
(0.00135074 -2.54644e-06 3.37827e-07)
(0.00135136 -1.48884e-06 3.37675e-07)
(0.00134976 -1.40102e-06 3.36619e-07)
(0.00134801 -7.82212e-07 3.36782e-07)
(0.00134546 -4.2812e-07 2.73242e-07)
(0.00134284 -4.28835e-08 3.26807e-07)
(0.00134058 4.55584e-08 1.36459e-07)
(0.00133809 5.22279e-07 3.07463e-07)
(0.00133563 4.85586e-07 3.0425e-07)
(0.00133315 3.9489e-07 -7.33894e-08)
(0.00133027 3.27806e-07 3.71978e-07)
(0.00132776 5.73896e-07 7.84352e-07)
(0.00132599 5.38324e-07 5.7579e-07)
(0.00132361 2.89691e-07 3.19862e-07)
(0.0013205 1.70813e-07 3.81621e-07)
(0.00131786 1.03813e-07 3.28285e-07)
(0.00131571 -3.31691e-07 3.28526e-07)
(0.0013132 -1.18667e-06 3.49945e-07)
(0.0013099 -1.13825e-06 3.50371e-07)
(0.00130744 -7.5558e-07 3.75512e-08)
(0.00130555 -4.04115e-07 2.72207e-07)
(0.0013035 5.41679e-07 4.72146e-07)
(0.0013017 5.53831e-07 4.69235e-07)
(0.00129894 1.53841e-07 3.3622e-07)
(0.00129612 1.40403e-07 3.13255e-07)
(0.00129399 2.36507e-07 3.12203e-07)
(0.00129202 6.32019e-07 7.13354e-08)
(0.00128875 1.17711e-06 3.52237e-07)
(0.00128565 6.74187e-07 5.32184e-07)
(0.00128367 2.47085e-07 3.35421e-07)
(0.00128131 4.40931e-08 3.67044e-07)
(0.00127891 -1.87402e-07 2.37816e-07)
(0.00127724 -5.92478e-07 6.23244e-07)
(0.00127512 -9.90458e-08 3.57457e-07)
(0.00127268 -4.63325e-08 3.42597e-07)
(0.00127029 5.53143e-07 3.13195e-07)
(0.00126766 9.04827e-08 2.11362e-07)
(0.00126533 -2.12223e-07 6.99363e-08)
(0.00126362 -3.00023e-07 4.01733e-07)
(-0.00403593 -0.0084708 -8.60084e-05)
(0.00308592 -0.00604165 -0.00970777)
(0.00465542 -0.00748807 -0.0337006)
(-0.00603868 0.00874318 0.00267083)
(-0.0844148 0.00358845 -0.0286911)
(0.027223 0.00478807 0.0043189)
(0.000706469 -0.00178839 -5.90437e-06)
(0.00142515 -0.000121512 1.60773e-06)
(0.00143931 -3.66725e-05 -3.3386e-07)
(0.0013435 -1.92511e-05 3.30561e-07)
(0.00136108 -1.01702e-05 3.40234e-07)
(0.00135509 -5.61409e-06 3.3772e-07)
(0.00135371 -3.30753e-06 3.3787e-07)
(0.00135116 -1.97302e-06 3.38119e-07)
(0.00134851 -1.20518e-06 3.37355e-07)
(0.00134623 -9.26505e-07 3.34769e-07)
(0.00134391 -5.5677e-07 1.36805e-07)
(0.00134127 -4.13787e-07 3.71781e-07)
(0.00133795 -4.36351e-07 4.07809e-07)
(0.00133507 -1.73028e-07 3.22681e-07)
(0.00133309 -7.43817e-08 2.83471e-07)
(0.00133091 2.35125e-08 3.29084e-07)
(0.00132836 4.3109e-07 3.77403e-07)
(0.00132521 4.42072e-07 3.00535e-07)
(0.00132259 1.11402e-07 3.42703e-07)
(0.00132045 -1.96406e-08 3.04611e-07)
(0.00131775 4.13992e-08 3.35513e-07)
(0.00131462 -2.6838e-08 3.24325e-07)
(0.00131231 -1.68597e-07 2.06067e-07)
(0.00131107 2.67169e-07 2.40928e-07)
(0.00130895 7.92501e-07 4.8676e-07)
(0.00130685 9.15582e-07 4.59444e-07)
(0.00130419 9.99999e-07 2.18856e-07)
(0.0013005 5.57727e-07 1.84417e-07)
(0.00129823 5.93877e-08 3.2185e-07)
(0.00129619 1.38204e-07 3.35441e-07)
(0.00129381 1.12485e-07 2.79289e-07)
(0.00129145 -4.55418e-08 3.50202e-07)
(0.00128892 -3.06427e-07 3.07602e-07)
(0.00128606 9.35679e-08 3.90122e-07)
(0.00128351 1.53691e-07 3.56299e-07)
(0.00128121 1.63141e-07 3.56421e-07)
(0.00127918 7.93965e-07 3.20566e-07)
(0.00127748 7.61439e-07 4.02584e-07)
(0.00127526 6.01866e-07 2.33341e-07)
(0.00127293 5.50524e-07 4.10178e-07)
(0.00127025 5.3755e-07 3.96131e-07)
(0.00126739 6.89138e-07 3.34886e-07)
(0.00126493 3.88485e-07 3.27651e-07)
(0.00126332 2.16781e-07 3.71921e-07)
(0.002197 0.00559784 -4.41861e-05)
(0.000683924 0.0123937 0.000851018)
(-0.0122121 0.00131109 0.00372476)
(-0.00789595 0.0043818 -0.00115605)
(0.00949895 -0.0191151 -0.000135318)
(-0.00783304 -0.000945774 -0.00424204)
(0.000455799 -0.00127684 -1.89217e-05)
(0.00150126 -7.23196e-05 1.67318e-05)
(0.00146776 -2.00204e-05 2.94038e-07)
(0.00135815 -1.13099e-05 3.57795e-07)
(0.00136924 -6.91417e-06 3.41286e-07)
(0.00135933 -4.01512e-06 8.19861e-08)
(0.00135592 -2.77314e-06 3.37228e-07)
(0.00135239 -1.56089e-06 3.38448e-07)
(0.00134932 -6.43945e-07 3.37302e-07)
(0.00134627 -2.41715e-07 3.35873e-07)
(0.00134349 -5.0036e-07 3.37722e-07)
(0.00134073 -5.67551e-07 2.91477e-07)
(0.00133839 -7.33689e-07 2.70575e-07)
(0.00133608 -5.46479e-07 2.9968e-07)
(0.00133339 -2.88615e-07 3.84255e-07)
(0.0013309 -2.99888e-07 3.35695e-07)
(0.00132828 -3.87335e-07 3.2015e-07)
(0.00132559 -2.79994e-07 3.87458e-07)
(0.00132303 2.16334e-08 2.7492e-07)
(0.00132041 2.50005e-07 2.69967e-07)
(0.00131785 3.64939e-07 3.94592e-07)
(0.00131545 8.10937e-07 3.76589e-07)
(0.00131357 1.49568e-06 3.4878e-07)
(0.0013111 1.40544e-06 3.18436e-07)
(0.00130824 8.17668e-07 3.56572e-07)
(0.0013058 9.02241e-07 3.18963e-07)
(0.00130304 -2.39606e-07 3.37785e-07)
(0.00130052 -1.56105e-07 3.25539e-07)
(0.00129842 1.14416e-07 2.91289e-07)
(0.00129618 4.66111e-08 4.10335e-07)
(0.00129376 -4.94522e-09 3.03561e-07)
(0.00129149 -1.55212e-07 3.2281e-07)
(0.00128893 -4.9259e-07 1.96504e-07)
(0.00128622 -5.89414e-07 2.4711e-07)
(0.00128376 -4.09174e-08 3.04379e-07)
(0.00128211 4.08547e-07 6.01229e-07)
(0.00127965 5.98445e-07 4.83914e-07)
(0.00127699 6.85997e-07 2.39366e-07)
(0.00127485 1.43695e-07 2.76118e-07)
(0.00127259 9.20913e-08 3.18076e-07)
(0.00127046 2.49243e-08 3.64913e-07)
(0.00126747 4.32841e-07 3.16597e-07)
(0.00126473 2.79201e-07 3.21433e-07)
(0.00126286 4.13015e-07 5.34083e-07)
(0.0025891 0.000240376 0.000771107)
(0.00826108 -0.0029959 0.000992971)
(0.0121897 0.00382238 -0.000514192)
(0.00991837 0.00705938 0.000116784)
(-0.00539706 -0.0106479 -0.000826755)
(-0.00199972 0.00751065 0.00171006)
(0.000369852 0.000130329 1.44988e-05)
(0.00128763 0.000239304 5.66678e-05)
(0.00145769 1.67928e-07 7.37285e-07)
(0.00135894 -9.09971e-07 4.18765e-07)
(0.00137015 -1.65857e-06 3.54689e-07)
(0.00136023 -1.59747e-06 3.75848e-07)
(0.00135676 -7.67993e-07 3.14804e-07)
(0.00135381 -7.72402e-07 3.38593e-07)
(0.00135015 -9.33538e-07 3.61199e-07)
(0.0013464 -7.54794e-07 2.26443e-07)
(0.00134349 -3.29094e-07 3.34532e-07)
(0.00134097 -2.16255e-07 3.35648e-07)
(0.00133798 5.53136e-08 5.41743e-07)
(0.00133563 2.36836e-07 1.11811e-07)
(0.0013334 -3.38582e-07 3.66159e-07)
(0.00133079 4.02122e-08 5.49662e-07)
(0.00132839 -7.52481e-08 3.14634e-07)
(0.00132573 -1.67804e-08 3.77024e-07)
(0.00132325 3.95877e-08 2.5882e-07)
(0.00132088 -8.26165e-08 3.66808e-07)
(0.00131845 2.56341e-07 3.83164e-07)
(0.00131602 4.62661e-07 3.09402e-07)
(0.00131305 6.87353e-07 5.06406e-07)
(0.0013102 5.78784e-07 4.5201e-07)
(0.0013083 2.47457e-07 3.54385e-07)
(0.00130553 -3.68619e-07 2.88354e-07)
(0.00130286 -1.0822e-07 2.8482e-07)
(0.00130094 2.63803e-08 3.26118e-07)
(0.00129848 1.91016e-07 2.94966e-07)
(0.00129604 -1.40262e-08 3.18692e-07)
(0.00129356 -1.33184e-07 1.31775e-07)
(0.00129084 -2.11478e-07 3.0749e-07)
(0.00128839 -3.52757e-07 3.05539e-07)
(0.00128663 -4.11434e-07 2.08805e-07)
(0.00128476 -1.35914e-07 3.14997e-07)
(0.00128201 1.56457e-07 3.58985e-07)
(0.00127952 -2.47465e-07 3.21054e-07)
(0.00127691 -8.58314e-08 4.7614e-09)
(0.00127452 -3.56685e-07 5.04695e-07)
(0.00127278 -4.35878e-07 3.18119e-07)
(0.00127068 -9.37864e-07 1.03717e-07)
(0.00126771 -1.41589e-06 2.71328e-07)
(0.00126489 -5.47748e-07 3.30057e-07)
(0.00126246 5.03365e-08 3.33641e-07)
(-0.00331817 -0.0340401 -0.0595234)
(-0.00574519 -0.0100875 0.00133486)
(-0.00988077 -0.0125208 -0.000606288)
(-0.00691115 0.00251974 0.000627245)
(-0.0191401 0.0162716 -0.0177039)
(0.0187295 0.00397365 -0.00326661)
(0.00246602 0.00146118 1.8928e-05)
(0.000987468 -6.17315e-05 -6.01633e-06)
(0.00143899 4.45894e-06 6.83032e-07)
(0.0013561 3.16076e-06 2.75619e-07)
(0.00136825 1.84593e-06 3.18274e-07)
(0.00136036 9.40676e-07 3.13286e-07)
(0.0013569 8.83094e-07 3.72755e-07)
(0.00135216 2.71999e-07 3.37813e-07)
(0.00134933 -2.79369e-07 3.56903e-07)
(0.00134702 -4.03361e-07 3.52511e-07)
(0.00134415 -2.15786e-07 3.36234e-07)
(0.0013412 -1.11318e-07 3.40118e-07)
(0.00133895 -1.66678e-07 2.89639e-07)
(0.00133558 4.05509e-07 4.53642e-07)
(0.00133314 6.70226e-07 1.58787e-07)