/*--------------------------------*- C++ -*----------------------------------*\
| =========                 |                                                 |
| \\      /  F ield         | OpenFOAM: The Open Source CFD Toolbox           |
|  \\    /   O peration     | Version:  5.0                                   |
|   \\  /    A nd           | Web:      www.OpenFOAM.org                      |
|    \\/     M anipulation  |                                                 |
\*---------------------------------------------------------------------------*/
FoamFile
{
    version     2.0;
    format      ascii;
    class       volVectorField;
    location    "3.9";
    object      U_0;
}
// * * * * * * * * * * * * * * * * * * * * * * * * * * * * * * * * * * * * * //

dimensions      [0 1 -1 0 0 0 0];

internalField   nonuniform List<vector> 
8094
(
(-0.00087383 0.00113724 0.000632535)
(0.00260683 -0.0012089 5.45242e-05)
(0.0087846 -0.00455417 0.000427415)
(-0.0102175 0.00105397 0.000202688)
(0.00754337 0.00727905 -0.000280519)
(0.00221234 0.00222698 5.4643e-05)
(0.00048187 -1.88439e-06 4.59284e-05)
(0.000918254 -6.94377e-05 -2.497e-06)
(0.00086544 -1.0864e-05 -1.77795e-07)
(0.000850315 -1.31281e-05 -2.28012e-08)
(0.000840808 -7.00576e-06 8.96503e-08)
(0.000833119 -4.63382e-06 5.5831e-08)
(0.000828408 -2.75739e-06 -3.72624e-09)
(0.000824537 -1.62282e-06 3.88074e-08)
(0.000821343 -9.91857e-07 4.80507e-08)
(0.000818885 -5.52128e-07 -1.85948e-09)
(0.000816754 -4.47932e-07 5.19149e-08)
(0.000814789 -2.59743e-07 8.31318e-08)
(0.000812938 -2.33161e-07 6.59472e-08)
(0.00081126 -1.79272e-07 2.16893e-07)
(0.000809706 -1.7922e-07 5.93792e-08)
(0.000807937 -1.02144e-08 6.45056e-08)
(0.000806423 2.22952e-08 5.48073e-08)
(0.000805014 -3.45273e-08 4.62741e-08)
(0.000803355 4.57246e-08 6.04516e-08)
(0.000801893 1.68911e-07 5.86141e-08)
(0.000800475 2.67412e-07 7.18572e-08)
(0.000799088 1.45055e-07 5.06252e-08)
(0.000797194 4.00438e-07 7.40807e-08)
(0.000795376 -1.29646e-07 1.8067e-07)
(0.000794028 -6.05764e-07 -5.34998e-08)
(0.000792408 -5.2658e-07 -1.48471e-08)
(0.000791075 -4.41621e-07 8.27848e-08)
(0.000789879 -2.61315e-07 3.66086e-08)
(0.000788384 -9.50013e-09 6.69693e-08)
(0.000786887 1.5686e-07 3.84435e-08)
(0.000785169 1.73944e-07 5.26951e-08)
(0.000783569 1.6972e-07 2.09111e-08)
(0.000782169 3.75015e-07 -2.09102e-08)
(0.000781035 4.37626e-07 7.93795e-08)
(0.000779838 5.7023e-08 3.13997e-08)
(0.000778344 -3.57928e-08 6.92278e-08)
(0.000777002 -3.803e-07 -3.99664e-08)
(0.000775374 -2.36988e-07 2.29397e-07)
(0.000773915 -2.12969e-07 3.57757e-08)
(0.000772542 -2.50125e-07 3.63494e-08)
(0.000771153 -2.86606e-07 4.92345e-08)
(0.000769898 -4.91506e-07 1.38161e-07)
(0.0007682 -3.09153e-07 -2.15296e-08)
(0.000766424 -2.24041e-07 6.40981e-08)
(0.00837766 0.00401606 -0.000285496)
(-0.00727813 0.00782856 0.000533254)
(-0.00217845 0.00919376 -0.000547529)
(0.010214 0.00406567 -0.000986618)
(0.00140554 -0.0127999 0.00100868)
(0.000653857 -0.00177747 -7.70127e-05)
(0.000827131 -0.000159212 1.67905e-05)
(0.000474003 -3.19046e-05 -1.26846e-06)
(0.000918601 8.17587e-06 -1.24994e-06)
(0.000841433 4.16308e-07 -3.21595e-07)
(0.000843253 1.79668e-06 1.63691e-07)
(0.000833569 1.12021e-06 4.10213e-08)
(0.000828686 8.06467e-07 5.11364e-08)
(0.000824603 3.84089e-07 4.95433e-08)
(0.000821674 2.34736e-07 5.00271e-08)
(0.000819034 5.87971e-08 4.89616e-08)
(0.000816768 2.13589e-07 4.78933e-08)
(0.0008149 2.22394e-07 9.92381e-08)
(0.000813162 4.42263e-07 5.05666e-08)
(0.000811413 2.3821e-07 2.58293e-08)
(0.000809669 2.82582e-07 9.60872e-08)
(0.000808097 2.25351e-07 5.99964e-08)
(0.000806393 5.20425e-07 9.86363e-08)
(0.000804967 3.81529e-07 3.25889e-08)
(0.000803578 2.0895e-07 -3.12707e-08)
(0.000801935 9.78528e-08 1.37897e-07)
(0.000800284 3.70271e-08 1.08673e-07)
(0.000798915 -1.65852e-07 4.58449e-08)
(0.000797003 -8.07038e-07 6.23479e-09)
(0.000794801 -5.32659e-07 7.57481e-08)
(0.00079371 -4.59843e-07 1.30738e-07)
(0.000792646 -2.86051e-07 4.96265e-08)
(0.000791276 2.43407e-07 2.03513e-07)
(0.000790035 3.21974e-07 3.03348e-07)
(0.000788515 1.43956e-07 4.56991e-08)
(0.000786817 8.73144e-08 3.88873e-08)
(0.000785451 8.63375e-08 4.13319e-08)
(0.000784075 1.8468e-07 5.4224e-08)
(0.000782522 3.34208e-07 2.4537e-08)
(0.000780792 4.91337e-07 4.92925e-08)
(0.000779223 1.42198e-07 5.9653e-08)
(0.000777787 -6.57964e-08 7.59593e-08)
(0.000776577 -3.65008e-07 6.99582e-08)
(0.000775559 -4.08737e-07 -2.23113e-08)
(0.000774047 -1.23532e-07 5.70016e-08)
(0.000772546 -1.21475e-07 5.66109e-08)
(0.000771185 4.29369e-08 6.45928e-08)
(0.00076979 -1.45611e-07 3.88001e-08)
(0.000768182 -3.69522e-07 8.64541e-08)
(0.000767162 -2.38711e-07 2.9501e-08)
(-0.000759363 0.00387671 0.000377229)
(0.00269588 -0.0048471 0.000185281)
(0.00497355 0.00801886 -0.000179647)
(-0.00856597 -0.00478443 0.000830499)
(-0.0339849 -0.00361823 0.00259661)
(0.0147388 0.00432645 -0.000500416)
(0.0016786 -0.000138305 0.000112562)
(0.000568215 -3.94972e-06 -5.42775e-07)
(0.000920834 2.4393e-05 -2.1745e-06)
(0.000842217 1.54615e-05 -3.66471e-07)
(0.000841712 1.00372e-05 1.58011e-07)
(0.000831896 6.38633e-06 3.98915e-08)
(0.000827499 3.98028e-06 5.72806e-08)
(0.00082383 2.48896e-06 5.15389e-08)
(0.000820943 1.50872e-06 5.39489e-08)
(0.000818862 8.4207e-07 5.30855e-08)
(0.000816961 4.96472e-07 5.09805e-08)
(0.000815076 3.26696e-07 4.16638e-08)
(0.000812958 4.13421e-08 8.01918e-08)
(0.00081106 5.56564e-08 4.10544e-08)
(0.000809689 9.34088e-08 2.96048e-08)
(0.000808231 1.61815e-07 4.63983e-08)
(0.000806614 2.19457e-07 5.43299e-08)
(0.000804622 2.45145e-07 -7.92187e-08)
(0.000802998 1.07832e-07 4.44928e-08)
(0.000801676 1.3925e-08 3.88184e-08)
(0.000800145 -1.52623e-07 5.73141e-08)
(0.000798036 -1.44726e-07 6.55874e-08)
(0.00079674 -2.88141e-07 -8.94671e-08)
(0.000795815 3.29809e-07 2.17247e-08)
(0.00079434 6.98882e-07 8.81951e-08)
(0.000793287 6.62808e-07 6.28697e-08)
(0.000791833 4.70938e-07 2.97422e-07)
(0.000789751 3.78017e-07 1.13386e-07)
(0.000788088 1.14046e-07 8.72347e-08)
(0.000786814 1.63644e-07 5.24674e-08)
(0.000785289 1.65057e-07 5.41478e-08)
(0.000783876 7.70247e-08 5.22744e-08)
(0.000782549 4.74321e-08 4.25455e-08)
(0.000780791 -8.16001e-08 4.68112e-08)
(0.00077914 9.68858e-08 6.59505e-08)
(0.000777711 1.51468e-07 4.00735e-08)
(0.000776576 4.97618e-07 1.36322e-07)
(0.000775679 3.49361e-07 1.05831e-07)
(0.000774277 2.44188e-07 8.73147e-08)
(0.000772751 2.28863e-07 5.48411e-08)
(0.000771124 3.2184e-07 4.56562e-08)
(0.000769384 1.53523e-07 5.92727e-08)
(0.000768089 8.12466e-08 5.6674e-08)
(0.000767182 7.07845e-08 8.24797e-08)
(0.0101789 0.00149168 -1.79973e-05)
(-0.00607625 -0.00172607 -3.30893e-05)
(-0.00855043 -0.00930259 3.8669e-05)
(0.00453772 0.00469748 -4.17259e-05)
(0.0188238 0.0105246 9.17947e-05)
(-0.00603662 0.00211331 1.69838e-05)
(0.00152151 -0.000293484 -2.74709e-05)
(0.000426208 2.32682e-05 1.2093e-05)
(0.000890326 4.89699e-05 -1.60178e-06)
(0.000823785 2.8361e-05 -4.47076e-07)
(0.000831885 1.67781e-05 1.49921e-07)
(0.000825981 1.02143e-05 2.33984e-08)
(0.000823803 6.16075e-06 5.62276e-08)
(0.000821506 3.79725e-06 5.13676e-08)
(0.00081961 2.42947e-06 4.97282e-08)
(0.000817767 1.59848e-06 5.16849e-08)
(0.000816122 8.62655e-07 4.60429e-08)
(0.000814331 4.36013e-07 9.05202e-08)
(0.000812824 2.78123e-08 3.7413e-08)
(0.000811479 -1.76243e-07 3.1357e-08)
(0.000809802 -3.79244e-08 7.59876e-08)
(0.000808254 -1.22204e-07 4.98915e-08)
(0.000806495 -2.01963e-07 -7.97999e-09)
(0.000804826 -7.90695e-08 6.89418e-08)
(0.000803287 1.10975e-07 2.62378e-08)
(0.00080161 2.24915e-07 3.01615e-08)
(0.000800086 2.47991e-07 6.36641e-08)
(0.000798747 3.46468e-07 8.17686e-08)
(0.000797595 9.52695e-07 2.34159e-09)
(0.000796032 7.33877e-07 5.1619e-08)
(0.00079412 7.73585e-07 2.06927e-08)
(0.000792356 7.32699e-07 -9.43934e-08)
(0.000790916 2.08324e-07 5.06934e-08)
(0.000789586 -9.37735e-09 5.06294e-08)
(0.000788245 1.41054e-07 5.3879e-08)
(0.00078688 6.96509e-08 4.04714e-08)
(0.000785342 3.71185e-08 3.58736e-08)
(0.000783928 -3.18921e-09 4.34787e-08)
(0.000782324 -2.9393e-07 1.70054e-08)
(0.000780854 -2.52797e-07 2.40188e-08)
(0.000779513 4.14083e-08 6.24452e-08)
(0.000778285 2.0126e-07 3.48674e-08)
(0.000776821 3.73197e-07 7.91098e-08)
(0.000775238 4.20208e-07 -2.97773e-08)
(0.000773892 6.57768e-08 2.35363e-08)
(0.000772639 2.05802e-08 4.07032e-08)
(0.000771087 -5.27769e-08 7.93344e-08)
(0.000769487 7.44893e-08 4.91219e-08)
(0.000768075 2.85892e-07 4.48803e-08)
(0.000766972 2.27142e-07 4.669e-08)
(-0.0100897 -0.000388144 0.000232643)
(-0.00629232 0.00957198 -0.000511543)
(-0.000247237 -0.00455683 -0.00019748)
(0.000608802 0.00677611 0.000321211)
(-0.00335527 -0.0113866 0.000403808)
(0.00419062 -0.0145368 0.00021758)
(0.000696479 0.000695911 1.50534e-05)
(0.000496728 -6.6068e-05 4.92531e-05)
(0.000849105 4.11889e-05 -1.52622e-06)
(0.000801337 2.52412e-05 -4.0103e-07)
(0.000818939 1.50952e-05 1.47759e-07)
(0.000818568 9.0296e-06 5.66741e-08)
(0.000819441 5.60353e-06 8.13362e-08)
(0.000819143 3.45915e-06 4.99251e-08)
(0.000818179 2.13751e-06 2.8515e-08)
(0.000816894 1.40066e-06 5.28412e-08)
(0.000815502 1.01358e-06 5.07345e-08)
(0.000814029 7.4361e-07 4.90232e-08)
(0.000812192 6.81869e-07 5.09307e-08)
(0.000810978 6.59847e-07 1.47301e-07)
(0.000809758 2.01409e-07 6.71724e-08)
(0.000808028 2.61109e-07 3.27738e-08)
(0.00080667 2.157e-08 7.89907e-08)
(0.000805014 8.0772e-08 8.47001e-08)
(0.000803377 5.70623e-08 6.49537e-08)
(0.000801846 7.58407e-08 6.41751e-08)
(0.000800294 1.95192e-07 6.68888e-08)
(0.000798911 2.06091e-07 1.41469e-08)
(0.000797217 1.83008e-07 6.98328e-09)
(0.000795583 6.86327e-08 2.93156e-08)
(0.000794331 3.29286e-08 5.89195e-08)
(0.000792575 -1.76295e-07 3.30674e-08)
(0.000790902 1.24094e-07 3.7519e-08)
(0.000789666 9.11827e-08 5.08655e-08)
(0.000788186 1.69993e-07 6.89224e-08)
(0.000786683 8.75572e-09 4.72249e-08)
(0.000785198 -9.80149e-08 3.89342e-08)
(0.000783463 -1.29674e-07 5.78935e-08)
(0.000782239 -1.07818e-07 9.16431e-08)
(0.000781212 3.84932e-10 8.99777e-08)
(0.000779707 4.67347e-08 5.61793e-08)
(0.000778123 1.40495e-07 3.89432e-07)
(0.000776846 -1.60421e-08 4.44047e-08)
(0.000775291 -1.7148e-08 6.96413e-08)
(0.000773775 -1.08474e-07 5.54512e-08)
(0.000772602 -1.98348e-07 4.66057e-08)
(0.000771191 -4.369e-07 -3.33275e-08)
(0.000769806 -3.41492e-07 -6.68799e-09)
(0.000768274 -2.03049e-07 1.52445e-07)
(0.000766543 1.1308e-07 9.80125e-08)
(-0.00130489 -0.00705448 -0.0012212)
(0.00377972 0.0101444 -0.00234678)
(-0.0035899 -0.00636254 0.000121662)
(6.15898e-05 -0.00203947 0.000116398)
(0.00971848 -0.00325466 -5.30888e-05)
(0.00130184 0.00206447 8.69173e-06)
(0.000785613 0.000360949 -9.2001e-06)
(0.000518791 3.90662e-05 3.44119e-05)
(0.000825947 1.25261e-05 -1.72102e-06)
(0.000791215 9.97522e-06 -2.74419e-07)
(0.000811492 6.75556e-06 1.42632e-07)
(0.000814038 4.35048e-06 4.08418e-08)
(0.000816792 2.86336e-06 9.57651e-08)
(0.000817143 1.81368e-06 4.88089e-08)
(0.00081702 1.12022e-06 8.62125e-08)
(0.000816351 6.96211e-07 5.62322e-08)
(0.000815294 4.33488e-07 4.87055e-08)
(0.000813911 2.9232e-07 2.16196e-08)
(0.000812715 1.99038e-07 2.28478e-08)
(0.000810875 6.09896e-07 2.32331e-08)
(0.000809301 4.50914e-07 -2.15868e-08)
(0.000808028 3.6907e-07 3.3724e-08)
(0.000806269 2.69604e-07 1.74926e-07)
(0.00080487 1.06078e-07 6.84902e-08)
(0.000803281 9.70039e-08 -2.39737e-08)
(0.000801781 3.07372e-08 4.78615e-08)
(0.000800247 -7.24891e-08 4.05899e-08)
(0.000798729 -1.6939e-07 1.51427e-08)
(0.00079742 -1.46361e-07 4.45276e-08)
(0.000795842 -2.75243e-07 8.78813e-08)
(0.000793814 -4.0452e-07 -1.74278e-08)
(0.000792468 -3.0852e-07 2.04306e-07)
(0.00079125 -2.22766e-07 1.60915e-08)
(0.000789642 -1.3111e-07 7.17908e-08)
(0.000788141 -1.898e-07 5.48528e-08)
(0.000786545 -5.52316e-08 4.3722e-08)
(0.00078517 -6.84759e-08 3.05481e-08)
(0.000783917 1.16743e-08 8.02532e-08)
(0.000782488 2.56555e-07 5.49387e-08)
(0.000781048 1.24682e-07 5.54362e-08)
(0.000779688 6.5271e-08 3.05026e-08)
(0.000778207 2.54132e-08 -7.4463e-10)
(0.000776624 7.49044e-08 4.74144e-08)
(0.000775123 -1.15911e-07 5.62072e-08)
(0.000773667 -4.51404e-08 3.48785e-08)
(0.000772232 -1.80885e-07 4.76009e-08)
(0.000770913 -4.82539e-07 -3.35863e-07)
(0.000769783 -5.33188e-07 3.66125e-08)
(0.000768644 -4.97536e-07 9.76152e-08)
(0.000767084 -2.35962e-07 1.72955e-07)
(-0.00917346 0.00989876 -8.72195e-05)
(0.00570798 -0.0112682 0.00211882)
(-0.000760067 -0.000495487 0.00102164)
(-0.0227749 0.00773688 -0.000365119)
(0.00664723 -0.000962376 -0.000943734)
(-0.00328422 -0.00218237 0.000267926)
(0.00179246 0.00145599 1.71843e-05)
(0.000496599 9.64015e-05 4.86325e-05)
(0.000836376 -1.35648e-05 -1.78052e-06)
(0.000793551 -5.9668e-06 -3.53857e-07)
(0.000811801 -3.20947e-06 1.44348e-07)
(0.000813635 -1.53948e-06 3.59008e-08)
(0.000816229 -9.09249e-07 5.62386e-08)
(0.000816939 -5.11861e-07 5.11629e-08)
(0.000816767 -3.29134e-07 5.32708e-08)
(0.000816027 -1.53422e-07 5.07736e-08)
(0.000814992 -5.97573e-08 5.00768e-08)
(0.000813733 -1.22117e-07 9.13517e-08)
(0.000812585 5.65635e-08 4.77337e-08)
(0.000811289 -2.48e-07 7.43901e-08)
(0.000809452 8.48162e-08 -7.13571e-08)
(0.000807798 -9.83199e-08 4.25789e-08)
(0.000806339 7.90219e-08 3.63478e-08)
(0.000804797 1.42004e-08 5.11983e-08)
(0.000803282 7.9151e-08 1.02713e-07)
(0.000801634 1.06872e-07 2.10601e-07)
(0.000800044 -4.76342e-08 5.66503e-08)
(0.00079882 -1.35708e-08 3.35732e-08)
(0.000797088 -3.86088e-07 6.86395e-08)
(0.000795263 -6.91821e-07 5.26264e-08)
(0.000794293 -3.90129e-07 1.59131e-07)
(0.000792806 -7.32242e-08 3.77134e-08)
(0.000791127 -9.32442e-08 3.88599e-08)
(0.000789709 -9.96606e-08 3.98903e-08)
(0.000788282 -9.06664e-08 1.42308e-07)
(0.000786836 5.43725e-08 6.18106e-08)
(0.000785282 1.42461e-07 5.16896e-08)
(0.00078387 2.06408e-07 7.91191e-08)
(0.00078238 1.43573e-07 6.75773e-08)
(0.000780972 2.28769e-07 4.59465e-09)
(0.000779583 9.25643e-08 4.18232e-08)
(0.000778135 3.27971e-08 -3.48594e-09)
(0.00077667 1.47417e-08 6.21869e-08)
(0.000775142 -3.45583e-08 -1.48721e-08)
(0.000773696 -9.18063e-09 5.26331e-08)
(0.000772058 3.40549e-08 5.04621e-08)
(0.000770755 1.05417e-08 1.7169e-08)
(0.000769792 -2.87728e-07 6.3925e-08)
(0.000768655 -2.09146e-07 2.63435e-08)
(0.000767458 -2.51983e-07 8.51818e-08)
(0.0298225 -0.00765781 -0.00239145)
(-0.000996851 -0.00608267 -0.000272745)
(-0.00649535 0.00661369 -0.000563193)
(-0.0115051 0.0152594 0.00152523)
(0.0290285 0.00579455 -0.000896652)
(-0.0613824 0.00232805 -0.0010178)
(0.000377512 0.00075333 -2.82791e-05)
(0.000288144 3.96443e-06 2.5945e-06)
(0.000846217 -2.30594e-05 -1.95609e-06)
(0.000804333 -1.54394e-05 -3.58725e-07)
(0.000816985 -1.00585e-05 1.20533e-07)
(0.000816888 -6.369e-06 2.96169e-08)
(0.00081806 -3.98514e-06 5.15151e-08)
(0.000817859 -2.49293e-06 4.86124e-08)
(0.000817461 -1.5111e-06 4.36214e-08)
(0.000816683 -9.57555e-07 5.00143e-08)
(0.00081533 -7.17646e-07 5.42666e-08)
(0.000814054 -4.52989e-07 5.49933e-08)
(0.000812556 -2.7927e-07 9.59789e-08)
(0.000810909 -3.11496e-07 1.41562e-09)
(0.000809488 -3.721e-07 4.54688e-08)
(0.00080802 -1.95214e-07 5.58291e-08)
(0.00080641 -3.30079e-07 3.45789e-08)
(0.00080487 -1.93891e-07 4.83622e-08)
(0.000803396 -3.19858e-07 6.25529e-08)
(0.000801623 -2.17081e-07 1.55629e-08)
(0.000800097 -3.95942e-08 -7.49251e-09)
(0.000798309 -4.34654e-08 5.43521e-08)
(0.000796577 -1.802e-07 2.66763e-08)
(0.000795843 2.898e-07 5.68832e-08)
(0.000794591 3.30718e-07 8.8549e-08)
(0.000792842 1.13314e-07 3.31293e-08)
(0.000791218 2.43239e-07 4.62696e-08)
(0.000789646 8.59949e-08 4.0099e-08)
(0.000788335 4.8639e-08 6.14092e-08)
(0.000786836 -1.24713e-07 3.86171e-08)
(0.000785359 -8.70517e-08 5.71664e-08)
(0.000783918 -1.13935e-07 4.21498e-08)
(0.000782514 9.31716e-08 4.12851e-08)
(0.000780983 1.82957e-07 5.84484e-08)
(0.000779442 3.34976e-08 4.26384e-08)
(0.000778109 1.55491e-07 4.4028e-08)
(0.00077654 1.20375e-07 -6.57289e-08)
(0.000775094 1.08399e-07 4.86749e-08)
(0.000773754 9.8141e-08 6.19713e-08)
(0.000772258 1.77052e-07 4.61788e-08)
(0.000770511 4.96894e-07 5.78862e-08)
(0.000769511 6.58512e-07 7.16183e-08)
(0.000768697 2.71119e-07 -1.28354e-08)
(0.000767659 3.3905e-08 6.77294e-08)
(-0.000430843 0.00332932 -0.000204605)
(0.00818194 -0.00612321 4.47644e-05)
(0.00519872 -0.00179513 0.000421551)
(0.00573058 0.0102063 -0.00141292)
(0.00264074 0.0014174 -0.000148319)
(-0.00406702 -0.00695048 -0.000580321)
(0.00116094 -0.00124056 9.28422e-05)
(0.000457745 6.26795e-07 4.60363e-07)
(0.000863605 -4.03576e-05 -1.19442e-06)
(0.000809612 -2.16101e-05 -4.1911e-07)
(0.000823177 -1.49174e-05 1.70856e-07)
(0.000821251 -9.24264e-06 3.80898e-08)
(0.000821089 -5.91718e-06 5.21138e-08)
(0.00082004 -3.81344e-06 4.9426e-08)
(0.000818692 -2.32524e-06 1.23718e-07)
(0.000817021 -1.53718e-06 1.10724e-07)
(0.000815625 -1.00237e-06 2.07498e-08)
(0.000814282 -6.88446e-07 5.39129e-07)
(0.000812763 -5.46614e-07 4.93091e-08)
(0.000811175 -2.88232e-07 9.51712e-08)
(0.000809599 -2.00415e-07 5.05102e-08)
(0.000807853 -3.1439e-07 -1.94114e-08)
(0.000806343 -3.42344e-07 6.91035e-09)
(0.000804813 -3.0559e-07 5.28699e-08)
(0.000803256 -2.8977e-07 2.16299e-08)
(0.000801987 -3.65548e-07 -1.60796e-07)
(0.000800263 -2.62347e-07 2.30992e-08)
(0.000798646 -1.92849e-07 1.71306e-07)
(0.000797504 9.0783e-08 9.26301e-08)
(0.000795901 4.23025e-07 3.62698e-08)
(0.000794071 2.64083e-07 1.4611e-07)
(0.000792695 1.13291e-07 6.12584e-08)
(0.000791091 -6.01666e-08 8.85672e-08)
(0.000789465 -1.08225e-07 -2.01261e-08)
(0.000788019 -1.83873e-07 7.00895e-08)
(0.000786667 -3.83632e-07 8.41687e-08)
(0.000785297 -3.83447e-07 5.45611e-08)
(0.000784095 -3.23479e-07 5.04718e-08)
(0.00078275 -4.58202e-07 8.6282e-08)
(0.000780897 -5.85181e-07 3.40862e-08)
(0.000779548 -2.93208e-07 4.65439e-08)
(0.000778244 -2.88968e-07 -2.46582e-09)
(0.000776611 -1.16017e-07 1.79002e-08)
(0.000775114 -6.06661e-08 4.7942e-08)
(0.000773781 8.64361e-08 5.97203e-08)
(0.000772555 1.85556e-07 1.69189e-08)
(0.000771354 3.91124e-07 3.38435e-08)
(0.000769506 9.67204e-07 2.68662e-08)
(0.000767872 6.40102e-07 -3.85728e-08)
(0.000767074 2.92159e-07 8.98225e-08)
(0.00250491 0.00944948 0.000151475)
(0.00150512 0.00573946 6.02411e-05)
(0.00353315 0.00574431 6.24485e-05)
(-0.00207605 0.000249164 6.26387e-05)
(0.00159941 0.00847627 -2.79606e-05)
(-0.00408787 0.00316116 -0.000332669)
(0.000765109 -3.71799e-05 6.65354e-06)
(0.000874443 -3.2896e-05 -2.42967e-06)
(0.000843927 -4.76793e-05 -9.32097e-08)
(0.000836453 -2.33109e-05 2.05029e-08)
(0.000832552 -1.52717e-05 9.06546e-08)
(0.000828207 -9.31594e-06 3.18642e-08)
(0.000824888 -5.84544e-06 6.44997e-08)
(0.000822374 -3.50209e-06 4.89425e-08)
(0.000820322 -2.27333e-06 5.35238e-08)
(0.000818346 -1.39594e-06 7.13159e-08)
(0.000816397 -7.92086e-07 4.76842e-08)
(0.000814628 -4.97737e-07 2.86023e-07)
(0.000813059 -3.89843e-07 2.01003e-08)
(0.000811344 -3.60368e-07 7.04358e-08)
(0.000809457 -3.23471e-07 6.05282e-08)
(0.000807845 -2.77003e-07 8.28357e-08)
(0.000806424 -2.57987e-07 5.68245e-08)
(0.000804939 -2.14647e-07 4.77724e-08)
(0.000803325 -9.70703e-08 6.01683e-08)
(0.000801661 -1.36424e-07 5.11889e-08)
(0.000800316 -1.72935e-07 1.13035e-07)
(0.000798752 3.22383e-08 3.97968e-08)
(0.000797346 1.80903e-07 -7.8156e-08)
(0.000796057 -2.15774e-07 3.6294e-08)
(0.000794201 -2.3994e-07 7.56954e-08)
(0.000792436 -2.51443e-07 5.78047e-08)
(0.000790942 -4.72205e-07 3.348e-08)
(0.000789493 -2.67482e-07 1.27851e-07)
(0.000787993 -1.43848e-07 1.76571e-07)
(0.000786589 2.29791e-08 6.7371e-08)
(0.000785437 3.20716e-08 6.98376e-08)
(0.000783827 -7.92306e-08 4.85888e-08)
(0.000782191 -3.90005e-07 8.46722e-09)
(0.000781193 -5.4618e-07 6.28993e-08)
(0.000779816 -2.82375e-07 6.13011e-08)
(0.000778333 -3.16369e-07 2.02463e-08)
(0.000776827 -2.03469e-07 9.95313e-08)
(0.000775347 -3.95935e-09 3.787e-08)
(0.000774061 4.75504e-09 3.77938e-08)
(0.000772636 1.04728e-07 4.54961e-08)
(0.000771484 -4.51515e-09 1.96619e-08)
(0.000769815 -5.42026e-08 2.80067e-08)
(0.00076784 3.10047e-07 -2.28299e-08)
(0.000766498 2.13626e-07 7.06904e-08)
(-0.0020123 0.00422882 0.000351207)
(-0.0186545 -0.00246458 -0.00114262)
(-0.0185816 -0.0042947 -0.00133066)
(-0.0254645 0.000707251 0.00701476)
(-0.00458473 0.00193712 0.00315806)
(0.00154445 0.0048379 -0.000159716)
(0.0012933 -1.38046e-05 6.3503e-05)
(0.0015255 -0.000106502 3.4724e-07)
(0.00143752 -1.40536e-05 3.30181e-07)
(0.00141293 -1.97355e-05 3.71728e-07)
(0.00139808 -1.06065e-05 3.97119e-07)
(0.00138613 -7.1962e-06 3.45162e-07)
(0.001379 -4.3519e-06 2.79124e-07)
(0.00137296 -2.52993e-06 8.76876e-08)
(0.00136784 -1.56094e-06 3.44394e-07)
(0.00136394 -8.8811e-07 2.62848e-07)
(0.00136054 -7.14122e-07 3.43482e-07)
(0.00135735 -4.12899e-07 3.72823e-07)
(0.00135426 -3.7342e-07 3.97229e-07)
(0.00135151 -3.35882e-07 5.61862e-07)
(0.001349 -2.71773e-07 4.5509e-07)
(0.00134607 5.72428e-08 3.40971e-07)
(0.00134352 9.21983e-08 3.27148e-07)
(0.00134118 -6.34661e-09 2.93101e-07)
(0.00133845 1.65889e-07 3.40641e-07)
(0.001336 4.15082e-07 2.44119e-07)
(0.00133367 4.89492e-07 2.98259e-07)
(0.00133141 2.45608e-07 3.43527e-07)
(0.00132827 6.30593e-07 3.63715e-07)
(0.00132523 -2.81346e-07 4.89067e-07)
(0.00132295 -1.04709e-06 2.45441e-07)
(0.00132023 -9.02462e-07 8.21936e-08)
(0.00131801 -7.15347e-07 3.79862e-07)
(0.00131613 -3.48344e-07 3.02662e-07)
(0.00131369 5.67166e-08 3.4763e-07)
(0.00131112 3.26298e-07 2.93883e-07)
(0.00130822 3.12284e-07 3.5243e-07)
(0.00130551 3.28466e-07 2.72564e-07)
(0.00130329 6.99088e-07 1.33101e-07)
(0.00130145 7.1383e-07 4.30718e-07)
(0.00129934 1.0715e-07 2.88672e-07)
(0.00129683 -4.53161e-08 3.10795e-07)
(0.00129472 -6.10157e-07 2.0258e-07)
(0.00129198 -3.92841e-07 7.05728e-07)
(0.0012895 -3.62751e-07 3.0905e-07)
(0.00128721 -4.43206e-07 2.07284e-07)
(0.00128488 -4.28941e-07 2.91189e-07)
(0.00128285 -7.5456e-07 4.25107e-07)
(0.00127998 -5.17572e-07 2.17116e-07)
(0.00127701 -3.9713e-07 3.43576e-07)
(0.00446696 -0.00351513 -0.000119702)
(0.0151018 -0.00238174 -0.00144398)
(-0.0067305 0.00502505 0.028854)
(-0.00642536 -0.000473105 -0.0199772)
(0.000165167 -0.00604357 0.000239406)
(-0.00610963 -0.0155542 0.000469573)
(0.00064636 -0.000434763 -4.82084e-06)
(0.00139386 -7.10241e-05 3.95598e-07)
(0.00152041 1.40235e-05 4.47893e-07)
(0.00139614 2.23426e-07 4.26529e-07)
(0.0014013 2.31271e-06 3.49804e-07)
(0.00138661 1.3252e-06 3.46386e-07)
(0.00137932 9.49515e-07 3.44658e-07)
(0.00137302 3.2546e-07 3.42351e-07)
(0.00136842 1.86832e-07 3.42308e-07)
(0.00136422 -2.09489e-08 2.846e-07)
(0.00136058 2.54509e-07 3.39942e-07)
(0.00135754 2.71144e-07 4.22745e-07)
(0.00135466 6.41998e-07 3.23363e-07)
(0.00135179 3.66934e-07 3.10663e-07)
(0.00134895 4.57504e-07 3.9686e-07)
(0.00134631 3.65899e-07 3.74691e-07)
(0.00134347 8.68509e-07 3.10237e-07)
(0.00134117 6.70323e-07 2.96538e-07)
(0.00133889 4.01983e-07 9.26229e-08)
(0.00133604 2.24125e-07 4.69193e-07)
(0.00133326 1.31701e-07 5.32789e-07)
(0.00133103 -2.6023e-07 3.34271e-07)
(0.00132788 -1.34933e-06 3.70236e-07)
(0.0013243 -8.94074e-07 3.60127e-07)
(0.00132251 -7.47737e-07 3.6382e-07)
(0.00132071 -4.65224e-07 3.11901e-07)
(0.00131848 5.20634e-07 6.42415e-07)
(0.00131641 6.35398e-07 9.69054e-07)
(0.00131382 2.60256e-07 3.18278e-07)
(0.00131098 1.53415e-07 3.23899e-07)
(0.00130871 1.69589e-07 3.1443e-07)
(0.00130646 3.65036e-07 3.73888e-07)
(0.0013038 6.60252e-07 3.21673e-07)
(0.0013009 8.25935e-07 3.25143e-07)
(0.00129833 2.32488e-07 3.30702e-07)
(0.00129593 -1.05493e-07 3.69444e-07)
(0.00129389 -5.7048e-07 3.0778e-07)
(0.00129223 -7.19729e-07 1.8064e-07)
(0.00128975 -2.18222e-07 3.57638e-07)
(0.00128728 -2.449e-07 3.41955e-07)
(0.00128502 1.2495e-07 4.50022e-07)
(0.00128263 -2.11628e-07 3.12718e-07)
(0.00127997 -5.78363e-07 3.68015e-07)
(0.00127824 -4.02144e-07 2.25448e-07)
(-0.00395949 -0.00819627 -7.38564e-05)
(0.00534246 -0.00681943 -0.000223989)
(0.00831027 0.0121592 1.90384e-05)
(0.00544718 0.00203909 0.00225233)
(-0.0804098 0.00973258 -0.0379146)
(0.0231747 0.00323016 0.00167265)
(0.00121484 -0.00151928 -1.33173e-06)
(0.00163471 -1.89094e-05 1.69679e-06)
(0.00152364 3.24735e-05 -3.49026e-07)
(0.00139808 2.07877e-05 3.46992e-07)
(0.00139952 1.37241e-05 3.49194e-07)
(0.00138446 8.80734e-06 3.46078e-07)
(0.00137778 5.50821e-06 3.44098e-07)
(0.00137203 3.45181e-06 3.43646e-07)
(0.00136742 2.09032e-06 3.4249e-07)
(0.00136403 1.14807e-06 3.3816e-07)
(0.00136091 6.66625e-07 3.29254e-07)
(0.00135784 4.27503e-07 2.15105e-07)
(0.00135438 -2.78699e-08 3.69813e-07)
(0.00135128 3.17207e-08 3.28018e-07)
(0.001349 1.02069e-07 2.45457e-07)
(0.00134658 2.22393e-07 3.35665e-07)
(0.0013439 3.44293e-07 4.29082e-07)
(0.0013406 4.34479e-07 -1.61434e-07)
(0.00133789 1.52883e-07 3.27708e-07)
(0.00133566 1.57718e-08 3.17484e-07)
(0.00133306 -1.90005e-07 3.33175e-07)
(0.00132956 -1.66367e-07 3.29151e-07)
(0.00132749 -4.06155e-07 5.48615e-08)
(0.00132599 6.22331e-07 2.51795e-07)
(0.00132349 1.19285e-06 3.35176e-07)
(0.00132181 1.1165e-06 3.21074e-07)
(0.00131938 8.006e-07 8.11445e-07)
(0.0013158 6.08068e-07 4.21248e-07)
(0.00131308 1.64577e-07 2.88043e-07)
(0.001311 2.29839e-07 3.37952e-07)
(0.00130848 2.5846e-07 2.84166e-07)
(0.00130612 1.19025e-07 3.52674e-07)
(0.00130386 4.9471e-08 3.30145e-07)
(0.00130091 -9.83577e-08 3.03886e-07)
(0.00129817 1.52807e-07 3.58115e-07)
(0.00129583 2.63098e-07 2.42056e-07)
(0.00129396 8.4941e-07 5.80944e-07)
(0.00129243 6.64002e-07 2.96138e-07)
(0.0012901 5.30315e-07 3.14435e-07)
(0.00128764 4.77454e-07 3.18967e-07)
(0.00128492 5.66503e-07 3.26274e-07)
(0.00128197 3.25731e-07 2.30706e-07)
(0.00127975 1.56421e-07 3.33355e-07)
(0.00127823 1.27164e-07 3.53406e-07)
(0.00197889 0.00619356 -2.58871e-05)
(0.00046614 0.0118926 0.000891266)
(-0.0110272 -0.000362426 0.00421759)
(-0.00883891 0.00375629 -0.00151067)
(0.00710478 -0.0189774 0.000612738)
(-0.00594007 0.000163293 -0.00427242)
(0.000485404 -0.00102411 -1.27637e-05)
(0.00155757 7.58873e-05 1.7872e-05)
(0.0014856 6.85804e-05 3.1799e-07)
(0.00137336 4.01659e-05 4.30938e-07)
(0.00138632 2.39649e-05 3.46936e-07)
(0.00137633 1.47199e-05 3.42298e-07)
(0.00137262 8.86293e-06 3.42946e-07)
(0.00136874 5.50814e-06 3.42817e-07)
(0.00136554 3.57093e-06 3.41456e-07)
(0.00136244 2.37372e-06 3.40514e-07)
(0.00135968 1.25808e-06 3.43436e-07)
(0.00135667 6.42041e-07 3.72706e-07)
(0.00135417 -4.93177e-09 3.25556e-07)
(0.00135195 -3.03369e-07 3.05887e-07)
(0.00134919 -9.83721e-08 3.62383e-07)
(0.00134661 -2.26685e-07 3.37313e-07)
(0.00134373 -3.6366e-07 1.61904e-07)
(0.00134093 -1.534e-07 3.95004e-07)
(0.00133836 1.34095e-07 2.78279e-07)
(0.00133562 3.39191e-07 2.73871e-07)
(0.00133303 4.03847e-07 3.98126e-07)
(0.00133076 6.51503e-07 4.41993e-07)
(0.00132886 1.67092e-06 2.91101e-07)
(0.00132629 1.28663e-06 5.06411e-07)
(0.00132312 1.31959e-06 3.15174e-07)
(0.00132022 1.28815e-06 -7.58782e-08)
(0.00131784 3.42237e-07 3.1572e-07)
(0.00131561 -1.05219e-08 3.31141e-07)
(0.00131334 2.42701e-07 3.497e-07)
(0.0013111 1.11732e-07 3.11838e-07)
(0.00130857 4.75163e-08 3.09214e-07)
(0.0013062 -3.78765e-08 2.87441e-07)
(0.00130353 -5.14254e-07 2.37089e-07)
(0.00130103 -4.63212e-07 1.77428e-07)
(0.00129878 7.01537e-08 3.44322e-07)
(0.00129679 4.15832e-07 3.20237e-07)
(0.00129439 7.10433e-07 3.89201e-07)
(0.00129182 7.41389e-07 2.31541e-07)
(0.0012895 1.47129e-07 3.3736e-07)
(0.00128732 6.25475e-08 3.21692e-07)
(0.00128482 -9.29292e-08 3.81792e-07)
(0.00128212 1.36416e-07 3.22862e-07)
(0.00127971 4.51483e-07 3.16063e-07)
(0.00127789 3.91987e-07 2.26111e-07)
(0.000647619 0.000464717 2.55812e-05)
(0.00447246 -0.00315234 0.000478588)
(0.0153831 0.00257772 -0.00102902)
(0.0121876 0.00975349 0.000191493)
(-0.00790559 -0.00854243 0.000459852)
(-0.00144538 0.00797849 0.001644)
(0.000282529 0.000171519 2.09819e-05)
(0.00122114 0.00035657 5.9234e-05)
(0.00142554 6.17251e-05 6.17747e-07)
(0.00134121 3.7884e-05 4.10848e-07)
(0.0013676 2.2674e-05 3.61597e-07)
(0.00136551 1.35597e-05 6.9968e-07)
(0.00136622 8.49657e-06 2.98776e-07)
(0.00136538 5.21136e-06 3.41442e-07)
(0.00136348 3.17198e-06 3.29703e-07)
(0.00136113 2.05744e-06 3.49865e-07)
(0.00135874 1.50015e-06 3.39324e-07)
(0.00135626 1.08594e-06 3.3707e-07)
(0.0013532 1.03941e-06 3.21317e-07)
(0.00135116 1.02687e-06 4.7008e-07)
(0.0013491 2.79729e-07 3.71985e-07)
(0.00134626 3.96259e-07 3.08969e-07)
(0.00134399 5.06979e-08 3.50576e-07)
(0.00134122 9.87096e-08 3.74604e-07)
(0.00133851 1.01034e-07 2.54488e-07)
(0.001336 6.25022e-08 3.70895e-07)
(0.00133345 2.98512e-07 3.868e-07)
(0.00133113 3.60028e-07 2.95481e-07)
(0.00132827 3.9156e-07 2.7609e-07)
(0.00132553 2.18684e-07 3.49086e-07)
(0.00132348 1.06732e-07 3.41953e-07)
(0.00132058 -2.48853e-07 3.14327e-07)
(0.00131776 2.47899e-07 3.14e-07)
(0.00131567 1.77885e-07 3.29704e-07)
(0.00131323 2.93964e-07 3.3783e-07)
(0.00131076 1.4489e-08 3.26903e-07)
(0.0013083 -1.84255e-07 3.43871e-07)
(0.00130542 -2.42994e-07 3.16061e-07)
(0.00130333 -2.28232e-07 4.17204e-07)
(0.00130164 -7.20185e-08 3.10356e-07)
(0.00129927 6.35839e-08 3.28859e-07)
(0.00129663 2.30239e-07 7.66242e-07)
(0.00129436 -2.96972e-08 3.26431e-07)
(0.00129172 -4.7256e-08 3.22307e-07)
(0.00128925 -2.87525e-07 3.43049e-07)
(0.00128734 -3.83022e-07 3.20849e-07)
(0.00128501 -8.14862e-07 1.32974e-07)
(0.00128265 -6.98672e-07 1.867e-09)
(0.00128006 -3.59178e-07 5.06064e-07)
(0.00127718 1.91264e-07 4.33215e-07)
(0.00313221 -0.0148408 0.00859357)
(0.00291516 -0.000560827 -0.000927046)
(-0.0116061 -0.0118973 -0.000460981)
(-0.00775026 0.0021789 0.000640098)
(-0.0193333 0.00952712 0.00194277)
(0.0239438 0.00368435 -0.00357743)
(0.0024206 0.00142269 1.33469e-05)
(0.000859597 2.49748e-05 -5.25648e-06)
(0.00138669 2.28984e-05 5.73076e-07)
(0.00132475 1.72665e-05 3.79096e-07)
(0.00135572 1.13912e-05 2.98048e-07)
(0.00135849 7.21109e-06 3.43216e-07)
(0.00136211 4.75316e-06 4.08638e-07)
(0.00136204 2.95559e-06 3.41854e-07)
(0.00136157 1.77524e-06 5.44449e-07)
(0.00136034 1.0755e-06 3.4618e-07)
(0.00135845 6.73112e-07 3.40111e-07)
(0.00135609 4.37864e-07 3.23101e-07)
(0.00135409 3.00532e-07 3.11556e-07)
(0.001351 9.63238e-07 3.26807e-07)
(0.0013484 7.4683e-07 2.77007e-07)
(0.00134632 6.1465e-07 3.46171e-07)
(0.00134336 4.48637e-07 4.52379e-07)