/*--------------------------------*- C++ -*----------------------------------*\
| =========                 |                                                 |
| \\      /  F ield         | OpenFOAM: The Open Source CFD Toolbox           |
|  \\    /   O peration     | Version:  5.0                                   |
|   \\  /    A nd           | Web:      www.OpenFOAM.org                      |
|    \\/     M anipulation  |                                                 |
\*---------------------------------------------------------------------------*/
FoamFile
{
    version     2.0;
    format      ascii;
    class       surfaceVectorField;
    location    "3.9";
    object      Uf;
}
// * * * * * * * * * * * * * * * * * * * * * * * * * * * * * * * * * * * * * //

dimensions      [0 1 -1 0 0 0 0];

internalField   nonuniform List<vector> 
24280
(
(-0.00127317 -0.00101189 0.000222486)
(0.0035545 0.00208954 0.000138525)
(-0.00192994 0.00220418 0.000387023)
(0.0118717 -0.00396251 0.000371941)
(-0.0300887 -0.00433743 -0.000249053)
(0.00876322 -0.0124441 0.000613157)
(0.00333069 -0.00354999 6.20917e-05)
(0.00610755 -0.00258981 0.000146456)
(-0.0178398 -0.0043578 -0.000272245)
(0.0012398 -0.00730918 0.000748708)
(-0.00269015 -0.00388785 -0.000240645)
(0.00624001 -0.00495632 0.000990376)
(0.011254 -0.00540656 0.000426352)
(-0.00850032 -0.00388425 0.000416312)
(-0.000668216 0.000701229 0.000526506)
(0.00575768 0.00604027 0.000993347)
(-0.0114629 0.00133504 -0.00112592)
(0.00339911 0.00190713 -1.92671e-05)
(0.00247077 0.0100396 3.55271e-05)
(0.00784251 0.00332972 0.000509662)
(0.0156154 0.00310201 0.000375071)
(0.00196753 0.00072278 9.27382e-05)
(0.000271205 0.00245778 8.47144e-05)
(0.00171749 0.00239085 4.36019e-05)
(0.00292404 0.00385939 7.82183e-05)
(0.0013494 5.73292e-05 1.532e-05)
(0.00047093 -1.9581e-06 4.21632e-05)
(0.000604619 4.2262e-05 8.03856e-05)
(0.000452342 2.33103e-05 2.58786e-05)
(0.000816573 7.3549e-06 -1.24135e-06)
(0.000537178 2.81724e-06 -1.35843e-06)
(0.00113835 -1.11142e-05 -1.19564e-06)
(0.000575967 1.10133e-05 -4.83502e-06)
(0.00059147 2.17446e-05 -5.17259e-06)
(0.000971388 1.89618e-05 -5.94654e-06)
(0.00100418 4.12197e-05 -4.47078e-06)
(0.000548345 -1.10871e-05 -3.62506e-06)
(0.000892511 2.04666e-06 -4.85248e-07)
(0.00091468 -2.03891e-05 -4.38493e-06)
(0.000806788 1.11787e-05 -1.41393e-07)
(0.000820756 1.96007e-05 -6.48199e-07)
(0.00108043 2.28516e-05 7.46572e-08)
(0.000808833 2.8549e-06 3.21964e-08)
(0.0007981 4.14326e-07 -1.34089e-07)
(0.00108058 3.09646e-06 1.84641e-07)
(0.000808723 1.59358e-06 7.24333e-08)
(0.000808127 5.9282e-07 1.34626e-07)
(0.00108141 2.36704e-06 1.82449e-07)
(0.00080901 6.45185e-07 2.82787e-08)
(0.000808105 -1.73971e-07 5.27673e-08)
(0.0010805 5.964e-07 1.75866e-07)
(0.000809057 5.33788e-07 3.79109e-08)
(0.000808829 -6.22065e-07 2.63973e-08)
(0.00108069 3.33574e-07 1.8918e-07)
(0.000807342 4.74552e-07 6.32182e-08)
(0.00080808 -4.35785e-07 6.37043e-08)
(0.00107925 5.74567e-07 1.57419e-07)
(0.000806079 3.07742e-07 3.54581e-08)
(0.000806854 -1.52635e-07 4.96133e-08)
(0.00107695 3.49939e-07 1.8404e-07)
(0.000805113 1.74808e-07 3.70139e-08)
(0.000805626 -4.91203e-07 2.81537e-08)
(0.00107544 2.60555e-07 2.04659e-07)
(0.000803818 1.35377e-07 5.81219e-08)
(0.000804331 -2.2189e-09 4.58919e-08)
(0.00107391 7.37668e-08 1.78105e-07)
(0.000801865 6.89468e-08 6.35119e-08)
(0.000802865 -2.26556e-07 5.69342e-08)
(0.00107171 1.96116e-07 1.5142e-07)
(0.000800206 -1.91827e-07 9.07275e-08)
(0.000801188 -4.57045e-07 5.44511e-08)
(0.00106918 -6.90207e-08 1.78255e-07)
(0.00079925 -2.82199e-07 8.86695e-08)
(0.000799836 1.79345e-07 7.33899e-08)
(0.00106747 -4.43567e-07 2.62945e-07)
(0.000797781 -1.35507e-07 6.79203e-08)
(0.000798526 1.69808e-07 4.12551e-08)
(0.00106593 -2.70357e-07 2.2065e-07)
(0.000796375 -1.4253e-07 3.33461e-08)
(0.000796897 -2.13887e-07 6.97646e-08)
(0.00106388 -2.75327e-08 1.93199e-07)
(0.000794679 -1.80275e-07 1.71289e-08)
(0.000795391 1.39852e-08 7.84954e-08)
(0.00106181 -2.41794e-07 1.93494e-07)
(0.000793194 -7.26194e-08 1.91618e-08)
(0.000794088 -2.27765e-07 4.71662e-08)
(0.00105976 -1.31793e-07 1.78668e-07)
(0.000791722 7.60867e-08 2.48757e-08)
(0.000792609 2.08171e-07 2.73614e-08)
(0.00105775 2.78405e-08 1.67323e-07)
(0.000790374 1.46187e-07 5.8141e-08)
(0.000790981 3.93031e-07 7.1123e-08)
(0.00105586 2.81715e-07 1.31979e-07)
(0.00078893 8.56881e-08 5.38171e-08)
(0.000789499 1.4659e-07 5.48793e-08)
(0.00105401 2.05708e-07 1.59412e-07)
(0.000787572 8.46668e-08 3.86751e-08)
(0.000788192 -9.82804e-08 4.79733e-08)
(0.00105228 7.85628e-08 1.73604e-07)
(0.000785665 5.52228e-08 4.61518e-08)
(0.000786608 1.72496e-06 6.0517e-08)
(0.00104996 1.77854e-07 -7.52071e-09)
(0.000784363 -2.22637e-07 6.97368e-08)
(0.00078481 7.56465e-08 7.02854e-08)
(0.00104775 -5.89774e-08 1.85136e-07)
(0.000782458 -4.75142e-07 7.47014e-08)
(0.000783249 -8.14266e-07 -3.28626e-08)
(0.00104573 -6.41055e-07 3.69002e-07)
(0.000781228 -4.65554e-07 7.69531e-08)
(0.000781838 -7.19311e-07 4.21471e-08)
(0.00104351 -7.02546e-07 3.16913e-07)
(0.000779684 -2.93668e-07 6.66209e-08)
(0.000780557 -2.5647e-07 1.03593e-07)
(0.00104171 -5.52848e-07 1.81999e-07)
(0.000778545 -5.45041e-08 5.52818e-08)
(0.000779389 6.45793e-08 8.59511e-08)
(0.00104007 -2.15848e-07 1.54567e-07)
(0.00077701 1.15206e-07 6.80252e-08)
(0.000777883 2.97729e-08 5.33508e-08)
(0.00103828 1.04455e-07 1.51459e-07)
(0.000775406 1.88557e-07 5.69264e-08)
(0.000776253 8.76277e-09 5.50101e-08)
(0.00103616 2.54765e-07 2.04049e-07)
(0.000773636 2.59389e-07 3.44873e-08)
(0.000774772 3.48634e-07 3.94273e-08)
(0.00103386 2.87088e-07 1.88827e-07)
(0.000772079 4.76949e-07 5.85904e-08)
(0.000773299 5.5482e-07 1.84867e-08)
(0.00103151 4.14312e-07 1.34703e-07)
(0.000771859 4.22904e-07 6.67688e-08)
(0.000771899 -2.59253e-06 5.13275e-08)
(0.00103043 8.54202e-07 2.23041e-07)
(0.000769929 1.16812e-07 3.7334e-08)
(0.000770471 3.54737e-07 1.46647e-07)
(0.00102911 3.14568e-07 1.79561e-07)
(0.000768414 1.76825e-08 4.92416e-08)
(0.000769002 9.05749e-08 4.40761e-08)
(0.00102673 5.42078e-08 1.72345e-07)
(0.000766975 -1.29487e-07 6.54312e-08)
(0.000767528 4.39608e-08 7.18253e-08)
(0.00102469 4.09982e-09 1.53707e-07)
(0.000765962 -3.14438e-07 3.93926e-08)
(0.000766239 -1.4665e-07 3.57955e-08)
(0.00102326 -3.5819e-07 3.29704e-07)
(0.000764058 -2.63912e-07 2.79613e-08)
(0.000764958 1.82371e-06 5.32492e-08)
(0.00102119 -4.60512e-07 1.08912e-07)
(0.000762564 -1.44001e-07 4.76662e-08)
(0.000763483 -2.16625e-07 4.49286e-08)
(0.00101893 -2.26465e-07 1.69461e-07)
(0.000761082 -4.62817e-08 5.4702e-08)
(0.000761994 2.06913e-07 5.81619e-08)
(0.00101696 -2.03385e-07 1.62633e-07)
(0.000760286 -3.76243e-08 5.361e-08)
(0.000760688 -6.46413e-07 5.1647e-08)
(0.00101536 1.30291e-08 1.67523e-07)
(0.000758711 -2.46413e-07 5.1486e-08)
(0.000759377 1.46244e-07 9.39733e-09)
(0.00101398 -1.8406e-07 1.75949e-07)
(0.000757004 -3.59306e-07 2.96187e-08)
(0.000757808 -3.12798e-07 -1.41726e-08)
(0.00101163 -5.07382e-07 2.10369e-07)
(0.000756508 8.93619e-07 6.13895e-08)
(0.00100947 -4.36707e-07 1.09074e-07)
(-0.00165624 0.00630817 0.00021725)
(0.00367498 0.00600023 4.55303e-05)
(0.00626848 9.46417e-05 -0.000341756)
(0.00270181 0.00400007 0.000607158)
(0.00807699 0.00457568 -0.000283462)
(-0.0018752 0.0108107 0.00188493)
(-0.0128583 0.00298964 0.000180326)
(-0.00523 0.00805284 0.00077929)
(0.00345963 0.00597334 0.000356273)
(0.00282192 -0.000631003 0.000372683)
(-0.00879853 0.00046247 -0.00214362)
(0.00154681 0.00226659 -0.00665102)
(-0.00569518 0.00703811 0.000876112)
(-0.0132951 0.00178196 -0.00158232)
(-0.00646343 0.00321617 0.0438094)
(-0.00769757 0.00801127 0.0310427)
(-0.00296667 -0.00140191 -0.0964853)
(-0.00732352 0.00915345 0.0149043)
(0.0174473 0.00247063 -0.0063285)
(0.0182352 0.00593053 -0.00025661)
(0.00617482 0.00485748 -0.000973873)
(0.0188528 0.00829025 0.00259051)
(0.0112956 -0.0223941 -0.00665351)
(0.0371516 -0.0103197 0.053308)
(0.0124669 -0.00954347 0.0991691)
(0.0196599 0.0059784 -0.142674)
(-0.00102816 -0.00393886 0.000523626)
(-0.000618346 -0.00613717 0.000378006)
(-0.00550554 -0.00485962 0.000456894)
(0.00205464 -0.00646097 0.00048018)
(0.00435874 -0.00299741 0.000605187)
(-0.0023794 -0.000948672 -4.62646e-05)
(0.000551195 -0.00134173 -3.83045e-05)
(0.000502712 -0.00122255 -8.16019e-06)
(0.00220714 -0.00197523 9.24564e-05)
(0.000429906 -0.00360359 7.32019e-05)
(0.000900501 -0.000122992 6.34148e-05)
(0.000567276 -1.52827e-05 3.49511e-05)
(0.000908339 -8.71893e-06 1.68775e-06)
(0.000762368 -2.03002e-07 1.13242e-06)
(0.000881824 -1.02034e-05 1.85085e-05)
(0.00041146 -3.34185e-06 9.73716e-07)
(0.000434266 -5.64716e-06 -2.79885e-06)
(0.00040492 -1.89695e-05 -1.49129e-07)
(0.000648062 -3.33054e-06 -4.36913e-07)
(0.000793425 -2.0838e-06 -6.41063e-07)
(0.000846546 -2.07668e-05 -1.61723e-06)
(0.00112153 3.03384e-06 -8.46099e-07)
(0.000554672 -6.04246e-06 -3.23032e-06)
(0.000569778 -1.73674e-05 -4.60128e-06)
(0.000925415 -1.58434e-05 -3.99035e-06)
(0.000952017 -3.66266e-05 -5.94628e-06)
(0.00080328 -4.24859e-06 -3.17474e-08)
(0.00079538 -1.25305e-05 -3.1894e-07)
(0.00105649 -6.96214e-06 8.43147e-08)
(0.000807166 -2.30293e-06 1.14986e-07)
(0.000810576 -6.64185e-06 1.68855e-07)
(0.0010798 -3.19798e-06 2.0669e-07)
(0.000808488 -1.48566e-06 5.08945e-08)
(0.000809136 -3.82925e-06 4.32979e-08)
(0.00107915 -2.20778e-06 1.8089e-07)
(0.000808328 -1.03928e-06 5.21786e-08)
(0.000809394 -2.25598e-06 5.61201e-08)
(0.00107994 -1.2954e-06 1.69612e-07)
(0.000807546 -7.58782e-07 5.0104e-08)
(0.000808436 -1.42921e-06 5.19832e-08)
(0.00107884 -1.18879e-06 1.79504e-07)
(0.000806538 -4.10575e-07 4.23158e-08)
(0.000807293 -8.51138e-07 5.26766e-08)
(0.00107755 -6.61531e-07 1.7912e-07)
(0.000804808 -1.55591e-07 3.70259e-08)
(0.000805946 -1.11213e-07 4.55182e-08)
(0.00107556 -3.54168e-07 1.67355e-07)
(0.000803567 9.90175e-10 4.47006e-08)
(0.000804528 -4.08506e-08 5.00658e-09)
(0.0010735 -3.68842e-08 1.54551e-07)
(0.000802118 1.77956e-07 4.78742e-08)
(0.000803087 -7.14039e-07 5.44044e-08)
(0.00107172 3.92221e-08 2.03703e-07)
(0.000800711 3.15613e-07 3.71075e-08)
(0.00080136 -5.80419e-07 7.42175e-08)
(0.00106975 4.22699e-07 1.75372e-07)
(0.000799229 2.68052e-07 2.59858e-08)
(0.000799776 6.68138e-08 3.45412e-08)
(0.00106779 3.96844e-07 1.81199e-07)
(0.000797673 2.097e-07 4.30903e-08)
(0.000798452 2.29991e-07 2.76517e-08)
(0.00106581 3.11433e-07 1.75657e-07)
(0.000795804 2.40042e-07 1.14911e-07)
(0.000796933 1.19638e-07 5.44552e-08)
(0.0010635 2.5961e-07 1.84032e-07)
(0.00079486 2.80086e-07 1.08543e-07)
(0.000795439 7.14019e-07 1.15125e-07)
(0.00106151 4.31299e-07 7.8054e-08)
(0.000793512 1.96568e-07 5.5372e-08)
(0.000793982 5.69921e-07 6.6679e-08)
(0.00106011 4.04894e-07 1.06487e-07)
(0.000791897 9.27951e-08 7.35948e-08)
(0.000792478 3.03727e-08 5.46598e-08)
(0.00105819 2.05658e-07 1.98202e-07)
(0.000790015 4.4809e-08 6.78665e-08)
(0.00079092 -9.79144e-08 5.75556e-08)
(0.00105571 1.1738e-07 2.438e-07)
(0.000788797 -9.08527e-08 4.90377e-08)
(0.00078933 -6.83915e-07 4.79681e-08)
(0.00105361 6.4736e-08 2.09523e-07)
(0.000787224 -4.38338e-07 6.98112e-08)
(0.000787759 3.17406e-08 5.13207e-08)
(0.00105188 -2.69564e-07 1.73643e-07)
(0.000785884 -6.80445e-07 8.46476e-08)
(0.000786308 -4.55747e-07 5.28854e-08)
(0.0010499 -9.28028e-07 3.16125e-07)
(0.000783599 -5.71265e-07 -3.22816e-08)
(0.00078495 6.42061e-07 4.84483e-08)
(0.00104727 -9.14882e-07 2.0586e-07)
(0.000782545 -3.37493e-07 -6.54403e-08)
(0.000783544 5.4131e-08 3.32606e-08)
(0.00104524 -6.03261e-07 7.59882e-08)
(0.000781187 3.27405e-08 6.87678e-08)
(0.000782301 3.50388e-07 3.14081e-08)
(0.00104372 -3.14043e-07 8.86663e-08)
(0.000780235 2.88935e-07 1.22929e-07)
(0.000780877 -2.30867e-06 6.05959e-08)
(0.00104209 4.15646e-07 2.74225e-07)
(0.000778868 1.77424e-07 8.40303e-08)
(0.000779248 -1.67758e-06 6.70777e-08)
(0.00104066 4.21043e-07 2.89455e-07)
(0.000777005 7.36362e-08 4.03352e-08)
(0.000777752 5.60507e-07 5.67936e-08)
(0.00103845 1.10182e-07 1.71978e-07)
(0.000775657 1.08868e-07 3.75159e-08)
(0.000776296 -7.12075e-08 4.29249e-08)
(0.0010362 1.10578e-07 1.69706e-07)
(0.000774426 2.60597e-07 2.34332e-08)
(0.000774961 1.08908e-07 4.79664e-08)
(0.00103451 1.86754e-07 1.70864e-07)
(0.000773085 5.53336e-07 1.12137e-08)
(0.000773663 8.81443e-08 2.83406e-08)
(0.00103293 5.08145e-07 1.97076e-07)
(0.000770569 5.44787e-07 1.31177e-07)
(0.000771886 -7.14159e-07 2.13947e-08)
(0.00103029 9.49807e-07 1.34258e-07)
(0.000769492 2.57938e-07 1.53421e-07)
(0.00077011 3.04363e-07 1.51099e-07)
(0.0010278 5.20573e-07 1.43706e-07)
(0.000768162 9.56376e-08 6.66512e-08)
(0.000768798 -2.37956e-08 6.38954e-08)
(0.00102626 1.97967e-07 1.71152e-07)
(0.000766714 -1.82995e-08 4.22007e-08)
(0.000767386 -4.57728e-09 6.54158e-08)
(0.00102437 4.32432e-08 1.77091e-07)
(0.000765241 -2.02923e-07 4.96467e-08)
(0.000766009 -1.77795e-07 4.2914e-08)
(0.00102242 -1.33216e-07 1.78368e-07)
(0.000764461 -1.78284e-07 7.0219e-08)
(0.00076499 2.69837e-07 9.06792e-08)
(0.00102107 -4.59685e-07 2.26066e-07)
(0.000762879 -1.4409e-09 5.54201e-08)
(0.000763706 4.23204e-08 3.54774e-08)
(0.0010194 -6.43148e-08 1.67434e-07)
(0.000761495 1.97371e-07 5.51088e-08)
(0.000762242 9.57896e-08 8.79991e-08)
(0.00101743 -9.80662e-09 1.76475e-07)
(0.000759908 2.23459e-07 7.44718e-09)
(0.000760721 -1.0993e-06 6.32484e-08)
(0.00101551 4.60635e-07 2.2006e-07)
(0.00075843 -3.84572e-09 -5.62541e-08)
(0.000759093 2.84205e-07 2.07943e-08)
(0.00101341 8.4593e-08 1.67147e-07)
(0.000757223 -1.25785e-07 1.75752e-08)
(0.000757659 1.15878e-07 -8.86772e-09)
(0.00101155 -1.49334e-07 1.21362e-07)
(0.000756663 -1.15604e-07 1.04755e-07)
(0.00101019 -2.32587e-07 2.299e-07)
(0.000312796 -5.236e-05 0.000395471)
(0.00461693 0.00207883 0.000198985)
(-0.00251437 -0.00213483 0.000304621)
(-0.00225578 0.00452144 -0.000531964)
(-0.00254895 -0.00209947 0.000175673)
(0.00228845 -0.00546417 -0.0099319)
(-0.00259837 3.65986e-05 0.000840655)
(-0.0151321 -0.00389197 8.3968e-05)
(-0.00514976 0.00635885 0.00211871)
(-0.0120241 0.00520638 0.000314273)
(0.00324566 0.00518195 0.000609915)
(-0.00120526 0.00493179 -0.000621991)
(0.00281726 0.00756835 0.00109916)
(0.00132915 -0.00564787 0.0118036)
(0.00309227 -0.00543028 -0.00338966)
(0.00301484 -0.00522745 0.00248263)
(0.000288691 0.00112908 0.00190318)
(0.0193325 0.0140798 0.000443214)
(0.005175 0.0154498 -0.000130845)
(0.00776255 0.00924726 -0.00276526)
(-0.00721546 -0.00649716 -0.000341565)
(0.000464208 -0.00679335 0.00026924)
(-0.0098496 -0.000670397 0.000375085)
(0.00526775 -0.00609303 0.00389588)
(-0.00329646 0.00570757 0.00108395)
(-0.0338259 -0.00566586 0.00199613)
(-0.0190752 -0.00754005 0.00164922)
(-0.0601512 0.00594122 -0.00101926)
(-0.0172544 -0.0118946 0.0002013)
(-0.0466263 -0.00804468 0.00386813)
(0.0051599 0.00420544 -0.000669679)
(0.0195938 -0.00613454 -3.83737e-05)
(0.0108509 0.00293567 3.32789e-05)
(0.0248007 0.00541733 0.000945503)
(0.0306003 -0.000339551 0.000654949)
(0.000773055 -0.00084827 5.68011e-05)
(0.00117658 -0.000245267 0.000111296)
(0.00114896 -0.000655045 5.57107e-05)
(0.00107758 -0.000622173 2.46504e-05)
(0.000808966 -0.000182835 4.66562e-05)
(0.000331431 -4.04704e-05 -3.9561e-07)
(0.000478298 -2.6733e-05 -3.09264e-06)
(0.000783033 -7.54656e-05 5.23633e-07)
(0.000336322 -5.30775e-05 4.16311e-06)
(0.000615224 -7.08164e-05 4.86419e-06)
(0.000623066 -8.8765e-05 1.29574e-05)
(0.000446173 -3.96818e-05 -1.05031e-07)
(0.000333665 -3.66074e-05 3.62781e-07)
(0.000609252 -6.29343e-05 6.88364e-06)
(0.00053665 -6.0452e-05 -1.75998e-06)
(0.000298153 -3.71514e-05 -1.79192e-06)
(0.000811008 -2.09796e-05 -1.29553e-06)
(0.000868189 -2.60244e-05 -1.85769e-06)
(0.00114843 -3.20115e-05 -1.12857e-06)
(0.000587418 -1.14031e-05 -4.1111e-06)
(0.000594589 -1.30281e-05 -4.38803e-06)
(0.000977308 -6.85328e-06 -5.28637e-06)
(0.00101192 -9.00732e-06 -5.10653e-06)
(0.00081218 -1.1268e-05 -1.18497e-07)
(0.000807747 -1.44566e-05 -3.89615e-07)
(0.00107274 -1.69279e-05 7.51985e-08)
(0.000811548 -6.20165e-06 9.72079e-08)
(0.000816925 -8.10854e-06 1.57247e-07)
(0.0010874 -9.0497e-06 1.98865e-07)
(0.000810746 -3.56786e-06 4.85193e-08)
(0.000812436 -4.75756e-06 1.79079e-08)
(0.0010829 -5.04352e-06 1.76005e-07)
(0.000809643 -2.13168e-06 5.5926e-08)
(0.000811193 -2.87681e-06 5.94496e-08)
(0.00108199 -2.98486e-06 1.81216e-07)
(0.000808281 -1.28832e-06 5.45556e-08)
(0.000809492 -1.6994e-06 5.37781e-08)
(0.00108006 -1.78693e-06 1.79881e-07)
(0.000806811 -8.45515e-07 5.58814e-08)
(0.000807848 -9.88803e-07 5.25388e-08)
(0.00107801 -1.09039e-06 1.80359e-07)
(0.000805639 -5.69294e-07 1.35121e-08)
(0.000806293 -6.29621e-07 5.31782e-08)
(0.00107623 -8.20925e-07 1.81364e-07)
(0.000804132 -3.62048e-07 1.46944e-08)
(0.000804788 -5.79826e-07 8.44606e-09)
(0.0010744 -4.8996e-07 2.11952e-07)
(0.00080241 -2.82829e-07 8.07413e-08)
(0.000803187 3.91911e-09 5.19143e-08)
(0.00107229 -3.57347e-07 1.44147e-07)
(0.00080026 -1.82811e-07 7.1664e-08)
(0.000801486 2.45695e-07 6.57241e-08)
(0.00106963 -3.50545e-07 1.73938e-07)
(0.000799032 -7.30692e-08 3.62093e-08)
(0.000799914 -2.75464e-07 3.4764e-08)
(0.00106733 -1.36929e-07 1.75095e-07)
(0.0007978 -1.78334e-08 3.9008e-08)
(0.000798522 1.01536e-07 5.91252e-08)
(0.00106576 -5.98365e-08 1.606e-07)
(0.000796428 1.39884e-07 5.46496e-08)
(0.00079713 -2.91224e-08 4.86899e-08)
(0.00106403 1.65773e-08 1.74349e-07)
(0.000794687 2.58195e-07 7.32767e-08)
(0.000795586 -2.9504e-07 5.46196e-08)
(0.00106199 3.5065e-07 2.66547e-07)
(0.000792873 1.62596e-07 6.59705e-08)
(0.000793862 -5.34626e-08 7.30435e-08)
(0.00105947 3.44122e-07 2.46283e-07)
(0.000791568 2.99447e-08 3.86197e-08)
(0.000792312 -1.698e-07 3.77245e-08)
(0.00105739 9.51839e-08 1.72594e-07)
(0.000790174 1.11058e-09 3.76603e-08)
(0.000790884 -1.57191e-07 2.93883e-08)
(0.00105568 -1.9374e-08 1.70847e-07)
(0.000788342 -6.84262e-09 5.02501e-08)
(0.00078932 4.16612e-08 5.44445e-08)
(0.00105353 3.13703e-08 1.54208e-07)
(0.000786769 -7.02502e-08 3.43945e-08)
(0.00078768 -9.50051e-09 5.37805e-08)
(0.00105104 -3.09413e-08 1.8561e-07)
(0.000785379 -9.30887e-09 1.66875e-08)
(0.000786384 3.93651e-07 2.20671e-08)
(0.00104916 -1.37037e-07 1.0693e-07)
(0.00078496 2.37943e-07 1.13995e-07)
(0.000785257 9.0511e-07 3.40314e-08)
(0.00104816 1.77045e-07 6.26787e-08)
(0.000783187 4.46361e-07 1.3011e-07)
(0.000783802 4.12342e-07 1.37597e-07)
(0.00104649 5.90781e-07 1.75716e-07)
(0.000782131 5.59336e-07 2.3227e-08)
(0.00078244 5.63202e-07 6.12097e-08)
(0.00104479 7.0964e-07 1.22699e-07)
(0.000779793 4.68794e-07 4.74275e-09)
(0.000780761 1.73436e-07 1.02384e-08)
(0.00104263 8.07504e-07 7.52722e-08)
(0.000778171 1.78566e-07 3.98442e-08)
(0.000778884 2.8211e-07 3.18258e-08)
(0.00103969 4.40107e-07 4.87382e-08)
(0.000776995 6.23078e-08 5.93876e-08)
(0.000777606 1.22713e-08 5.67666e-08)
(0.00103789 4.69709e-08 1.87713e-07)
(0.00077557 7.28856e-08 5.33739e-08)
(0.000776309 -1.39105e-07 8.93352e-08)
(0.00103625 1.14141e-07 1.75725e-07)
(0.000774226 3.93332e-09 5.28799e-08)
(0.000774875 -1.80383e-08 4.42093e-08)
(0.00103435 8.40835e-08 1.72901e-07)
(0.000772716 -1.31985e-07 3.85237e-08)
(0.000773494 -3.3162e-08 4.76848e-08)
(0.00103246 -4.66945e-08 1.87483e-07)
(0.000771098 -6.81915e-08 4.12771e-08)
(0.000771966 -2.2634e-07 2.26682e-08)
(0.00103044 -2.61301e-07 1.5347e-07)
(0.000769485 8.86067e-08 6.16004e-08)
(0.000770306 7.18029e-07 4.92448e-08)
(0.00102816 8.67253e-08 1.58468e-07)
(0.000768069 8.3436e-08 6.26595e-08)
(0.000768791 -2.73404e-08 4.92051e-08)
(0.00102613 1.25514e-07 1.7095e-07)
(0.000766669 2.5299e-07 6.6136e-08)
(0.000767597 1.56458e-07 1.12742e-07)
(0.00102428 1.16334e-07 1.57621e-07)
(0.000765554 4.31372e-07 8.39318e-08)
(0.00076623 -1.35445e-06 1.09965e-07)
(0.00102263 6.15265e-07 2.28862e-07)
(0.000764508 3.62543e-07 5.59545e-08)
(0.000764902 4.09737e-07 4.59532e-08)
(0.00102128 5.93808e-07 1.27437e-07)
(0.000762958 2.92568e-07 6.80403e-08)
(0.000763616 -1.57317e-08 2.44843e-08)
(0.0010195 4.50368e-07 1.8748e-07)
(0.000761562 2.94152e-07 9.61464e-08)
(0.000762242 1.02652e-09 8.05158e-08)
(0.00101762 4.18393e-07 1.76493e-07)
(0.000759805 3.64562e-07 7.66085e-08)
(0.000760807 -5.2387e-08 7.30973e-08)
(0.00101548 4.19798e-07 1.26227e-07)
(0.000758354 3.38104e-07 6.81897e-08)
(0.000759059 3.98679e-07 6.01334e-08)
(0.00101321 5.58126e-07 1.6635e-07)
(0.00075689 1.932e-07 7.82777e-08)
(0.000757475 1.7536e-07 4.97678e-08)
(0.00101124 3.18762e-07 1.71791e-07)
(0.000756422 -1.05947e-06 1.31856e-07)
(0.00100994 1.77054e-07 2.03012e-07)
(0.0023941 0.000285459 -2.08061e-05)
(-0.00145827 -0.0004536 0.00023327)
(0.00621181 0.00352487 -7.58206e-06)
(-0.00129327 0.00133349 0.000197455)
(-0.00168988 -0.000662926 0.000555936)
(-0.0013125 0.000795575 0.000166762)
(-0.00598366 -0.00641945 -2.16155e-05)
(-0.00687902 0.00743805 4.98372e-05)
(-0.00255249 0.00575595 0.000368237)
(-0.00669398 -0.0035498 -0.000101926)
(-0.00770852 -0.00262808 0.00129253)
(-0.0133352 -0.0048577 -0.00127504)
(-0.00764763 0.00516162 -0.000230259)
(0.00382697 0.00535656 -0.000239046)
(-0.00482417 0.0057475 -7.13461e-05)
(-0.011546 -0.000631449 8.61545e-05)
(-0.00672435 -0.00895782 -7.91442e-05)
(-0.0103837 -0.00634597 0.000879489)
(-0.00336572 -0.0027732 0.000353428)
(0.0110501 0.00820906 -2.75255e-05)
(0.00156717 0.00826722 0.000162816)
(-0.00376935 0.00455881 -0.00102498)
(0.00505344 0.00304593 0.000193033)
(0.00867602 0.00825734 -0.000112801)
(0.0145765 0.00599159 0.000726838)
(0.00184772 0.00424073 4.60427e-06)
(0.00679805 0.00729463 -0.000166038)
(0.00379337 0.0126151 0.000346157)
(-0.00678068 0.00692293 0.000109584)
(0.00748706 -0.00232479 4.20569e-05)
(-0.00632289 0.000347749 0.00038927)
(0.00902337 -0.00766865 -0.000321875)
(0.010242 -0.000874079 0.000205831)
(-0.00865836 0.00814216 0.000653661)
(0.000903237 0.00823118 0.000883901)
(-0.00410301 0.0179995 -0.000220888)
(0.00440401 -0.00240791 0.00402737)
(-0.00113748 0.00691893 -0.00364104)
(0.00546243 -0.00151244 -0.00230804)
(0.0166637 0.00659899 7.76118e-05)
(0.0152766 0.00529261 0.000133193)
(0.0172939 0.00989442 -0.000250891)
(0.0218631 -0.0117813 0.000657703)
(0.022852 0.00436089 0.00121297)
(0.00919095 0.00121461 0.00349137)
(0.00646102 -0.00333642 0.00027609)
(-0.02145 -0.000822614 -0.00035156)
(-0.00561331 -0.00296504 -0.000118681)
(-0.00136158 -0.00170149 3.78689e-06)
(-0.00241272 0.00305383 -3.61689e-07)
(-0.009897 0.000752181 -0.000619188)
(0.00148923 0.00016243 -0.000117495)
(0.00116338 -0.000113306 7.75935e-06)
(0.000869173 -0.000216512 -5.41938e-05)
(0.00127539 -0.00104647 -4.22398e-05)
(0.00112535 0.000479197 -8.73178e-06)
(0.00135154 -4.53912e-05 -0.000293557)
(0.00104722 0.000851537 3.03557e-05)
(0.000965133 -0.000509473 3.11071e-05)
(0.00144171 -0.000433263 7.9487e-05)
(0.00137373 -0.000186026 6.29723e-06)
(0.00118176 -0.000186776 2.56341e-06)
(0.00209072 0.0007339 8.95981e-05)
(0.00237854 0.000464483 5.11123e-05)
(0.00106481 -8.17496e-05 9.11619e-05)
(0.000566443 -0.00013321 3.00911e-05)
(0.000362986 -4.03278e-05 7.4596e-06)
(0.000439876 -2.9021e-05 1.96557e-05)
(0.000632901 -4.12022e-05 2.30544e-05)
(0.000284678 -1.78081e-05 4.29403e-06)
(0.000826829 -1.43494e-05 -9.52249e-07)
(0.00087761 -1.11364e-05 -1.3728e-06)
(0.0011733 -1.9112e-05 -1.23564e-06)
(0.000615737 -3.38933e-05 -4.07649e-06)
(0.00061469 -2.61244e-05 -4.73624e-06)
(0.0010372 -6.05653e-05 -4.60857e-06)
(0.00102625 -4.44685e-05 -4.47023e-06)
(0.000820541 -8.45581e-06 -1.1405e-07)
(0.000814882 -7.01467e-06 -4.1601e-07)
(0.00108583 -1.09013e-05 7.34626e-08)
(0.000816155 -5.11335e-06 7.79923e-08)
(0.000821096 -4.88481e-06 1.63334e-07)
(0.00109469 -6.66588e-06 1.99556e-07)
(0.000813201 -3.17286e-06 2.88247e-08)
(0.000814856 -3.0349e-06 5.43621e-09)
(0.00108674 -3.91169e-06 1.79208e-07)
(0.000811023 -2.00648e-06 5.73035e-08)
(0.000812647 -2.16338e-06 7.76126e-08)
(0.00108402 -2.65509e-06 1.82453e-07)
(0.000809111 -1.09334e-06 5.17617e-08)
(0.000810631 -1.29064e-06 5.42083e-08)
(0.00108121 -1.51823e-06 1.80676e-07)
(0.000807275 -5.29697e-07 4.98353e-08)
(0.00080855 -6.38882e-07 4.22563e-08)
(0.00107876 -6.77397e-07 1.78463e-07)
(0.000805485 -3.9831e-07 4.81266e-08)
(0.000806455 -3.34042e-07 3.09247e-08)
(0.00107631 -2.9507e-07 1.78491e-07)
(0.000803857 -4.53355e-07 4.56519e-08)
(0.000804719 -3.53913e-07 4.901e-08)
(0.00107408 -4.74293e-07 1.69725e-07)
(0.000802331 -4.85838e-07 3.68927e-08)
(0.000803146 -1.39361e-07 4.86242e-08)
(0.00107189 -5.13019e-07 1.86612e-07)
(0.000801012 -4.26863e-07 2.88341e-08)
(0.00080156 3.71068e-08 1.31765e-07)
(0.00107003 -6.23447e-07 1.73572e-07)
(0.000799404 -2.58487e-07 5.76721e-08)
(0.000800125 -2.01365e-07 -1.25128e-08)
(0.00106816 -4.43472e-07 1.7915e-07)
(0.00079785 -1.76119e-07 6.88104e-08)
(0.000798625 -1.75478e-07 7.63908e-08)
(0.001066 -2.32536e-07 1.98846e-07)
(0.000796354 -1.95168e-07 4.8658e-08)
(0.000797108 -8.50244e-08 5.49721e-08)
(0.00106401 -2.37835e-07 1.78701e-07)
(0.00079475 -1.88123e-07 5.43806e-08)
(0.000795596 -1.59988e-07 4.45621e-08)
(0.00106192 -3.00951e-07 1.74893e-07)
(0.000793259 -6.75134e-08 4.48087e-08)
(0.000794013 -2.98839e-08 7.69945e-08)
(0.00105979 -2.20829e-07 1.72991e-07)
(0.00079161 9.11563e-08 2.84957e-08)
(0.00079251 -6.05699e-08 4.82398e-08)
(0.00105773 2.4165e-08 1.81006e-07)
(0.000790087 1.84943e-07 4.61646e-08)
(0.000791 -8.02274e-08 4.76956e-08)
(0.00105563 2.02831e-07 1.72505e-07)
(0.000788625 3.37865e-07 5.79751e-08)
(0.000789509 -2.39318e-08 6.44711e-08)
(0.00105359 2.89593e-07 1.7734e-07)
(0.000787257 6.35271e-07 4.14632e-08)
(0.000788049 5.90554e-07 4.63458e-08)
(0.00105167 6.36249e-07 1.22487e-07)
(0.000786157 8.0594e-07 3.94072e-08)
(0.000786593 9.50626e-07 1.3448e-07)
(0.00105016 1.15239e-06 1.02066e-07)
(0.000784284 6.01558e-07 5.76011e-08)
(0.000784998 2.50895e-07 4.14708e-08)
(0.00104818 1.10411e-06 2.55797e-07)
(0.00078291 4.21834e-07 6.87215e-08)
(0.000783574 3.43264e-07 5.98747e-08)
(0.0010459 6.08935e-07 1.70613e-07)
(0.000781419 1.02559e-07 4.8237e-08)
(0.000782038 -8.30938e-07 5.66544e-08)
(0.00104398 6.72861e-07 2.75033e-07)
(0.000779522 -1.80592e-07 3.73147e-08)
(0.000780406 1.33261e-06 3.73751e-08)
(0.00104175 -2.39091e-07 1.30092e-07)
(0.000778304 -3.62229e-08 4.87404e-08)
(0.000779064 -9.6169e-08 5.03181e-08)
(0.00103971 -1.39338e-07 1.79094e-07)
(0.000777019 3.64958e-08 8.6704e-08)
(0.000777697 1.83122e-07 4.90654e-08)
(0.00103804 8.22977e-08 1.46214e-07)
(0.000775536 1.40865e-08 8.01846e-08)
(0.000776281 -9.76738e-08 8.57191e-08)
(0.00103624 3.47074e-08 1.73016e-07)
(0.000774189 -4.26685e-08 3.90132e-08)
(0.000774804 -8.12407e-08 -6.73602e-09)
(0.00103431 2.09376e-10 1.6864e-07)
(0.000772777 -1.80737e-07 3.1837e-08)
(0.000773322 1.62953e-07 5.65309e-08)
(0.0010325 -1.22972e-07 1.55971e-07)
(0.00077118 -3.06716e-07 3.06277e-08)
(0.000771809 -3.53911e-07 3.27611e-08)
(0.00103046 -3.81695e-07 1.95744e-07)
(0.000769569 -1.90288e-07 3.68496e-08)
(0.000770453 1.04409e-06 6.40573e-08)
(0.00102829 -4.66034e-07 1.6468e-07)
(0.000768206 8.96278e-08 9.92678e-08)
(0.000769141 -2.20992e-08 4.02867e-08)
(0.0010263 -3.9372e-08 1.65465e-07)
(0.000767376 2.65376e-07 1.56572e-07)
(0.000767815 4.53853e-07 1.41004e-07)
(0.00102498 3.12854e-07 9.6452e-08)
(0.000765339 3.51505e-07 7.20064e-08)
(0.000766336 1.68235e-07 9.42601e-08)
(0.00102301 4.56033e-07 1.16926e-07)
(0.000764141 2.23081e-07 1.44896e-08)
(0.000764739 -1.43744e-06 -5.66393e-08)
(0.00102086 5.37704e-07 2.85134e-07)
(0.000762848 5.24283e-08 3.69426e-08)
(0.000763402 1.22926e-07 9.4347e-08)
(0.00101917 1.00172e-07 1.49924e-07)
(0.000761563 4.18254e-08 5.7469e-08)
(0.000762229 -5.74818e-09 4.59954e-08)
(0.00101738 7.01478e-08 1.59955e-07)
(0.000760113 1.66916e-07 5.66261e-08)
(0.000760963 9.86455e-07 4.14707e-08)
(0.00101568 3.01834e-08 9.8882e-08)
(0.000758091 2.2909e-07 4.17147e-08)
(0.000759136 1.17201e-06 4.07823e-08)
(0.00101328 3.65655e-07 1.70423e-07)
(0.000756855 2.0347e-07 1.03321e-07)
(0.00075744 -4.99809e-09 5.18594e-08)
(0.00101107 2.19435e-07 1.68434e-07)
(0.000756169 -1.30711e-06 1.08952e-07)
(0.00100957 3.30156e-07 1.94004e-07)
(-0.00534945 -0.000205607 0.00032303)
(-0.00693484 -0.000722322 0.000148042)
(-0.00747441 -0.00102226 0.000501694)
(-0.00885998 0.0077486 -0.000118374)
(-0.00142279 0.00467453 -0.00033006)
(0.000605405 0.00745021 0.000136154)
(-0.00945045 0.00463664 0.000195909)
(-0.00237328 -0.00350292 -8.61225e-05)
(-0.00304497 -0.00134031 -0.000150317)
(-0.00130242 -0.00358632 9.71545e-05)
(-0.00017936 -0.00584455 -0.000312775)
(-0.00117777 -0.0104834 1.10385e-05)
(0.000864325 0.00597855 0.000132436)
(-0.000173067 0.00249828 0.000223084)
(0.00403023 0.00823954 7.72499e-05)
(-0.00360837 0.00131995 0.000465546)
(-0.000600053 0.00366794 -0.00011789)
(0.00156238 -0.0020889 0.00103023)
(-0.00869686 0.00440746 -0.000738002)
(0.00239833 -0.00353018 0.00023203)
(0.00159986 -0.0110054 0.00055202)
(-0.00117866 -0.00332081 9.06475e-05)
(0.0198786 -0.00277182 -0.00346321)
(-0.000823282 -0.00400452 1.8631e-05)
(-0.00701485 -0.00986587 -0.00299278)
(0.00720053 0.0102031 0.000132941)
(0.000852913 -0.0155356 0.00987003)
(-0.00159574 -0.00850734 -0.0100552)
(-0.00414427 -0.0143902 -0.00138048)
(-0.00440394 -0.0196667 0.000114648)
(0.0014663 -0.00365739 4.75042e-05)
(0.00212308 -0.0107577 0.000432104)
(0.00166678 -0.0062338 0.000130579)
(0.00565302 -0.00937042 -0.00113526)
(0.00556665 -0.00772861 0.000423341)
(0.00116482 -0.00117318 -1.93819e-05)
(0.000357235 0.00042024 -3.37918e-05)
(0.00101387 0.000680312 -8.01068e-06)
(0.000689824 0.000554654 -1.56095e-06)
(0.000397809 6.99807e-05 1.10807e-05)
(0.000713882 -0.00334602 -0.000132544)
(0.00135579 -0.000269367 -9.82587e-06)
(0.000189208 0.000587195 -1.19262e-05)
(0.000808758 0.000537911 4.4891e-05)
(0.00122341 0.000915732 1.20488e-06)
(0.000652289 0.000377546 8.37357e-06)
(0.00151015 0.000259766 2.39023e-05)
(0.000518096 -0.000114941 4.85651e-05)
(0.00052789 -7.95915e-05 4.14791e-05)
(0.00072092 -8.41721e-05 8.35211e-05)
(0.000493348 -5.9286e-05 2.58662e-05)
(0.000828595 -3.92956e-06 -8.36877e-07)
(0.000871649 -1.56719e-06 -1.35405e-06)
(0.00116704 -2.14025e-06 -1.22461e-06)
(0.000619757 2.00515e-06 -4.11151e-06)
(0.000610897 3.43443e-06 -3.83682e-06)
(0.00103356 1.31498e-05 -2.64825e-06)