/*--------------------------------*- C++ -*----------------------------------*\
| =========                 |                                                 |
| \\      /  F ield         | OpenFOAM: The Open Source CFD Toolbox           |
|  \\    /   O peration     | Version:  5.0                                   |
|   \\  /    A nd           | Web:      www.OpenFOAM.org                      |
|    \\/     M anipulation  |                                                 |
\*---------------------------------------------------------------------------*/
FoamFile
{
    version     2.0;
    format      ascii;
    class       surfaceVectorField;
    location    "3.9";
    object      Uf_0;
}
// * * * * * * * * * * * * * * * * * * * * * * * * * * * * * * * * * * * * * //

dimensions      [0 1 -1 0 0 0 0];

internalField   nonuniform List<vector> 
24280
(
(7.68902e-05 -0.000426505 0.00024728)
(0.00375191 0.00206682 0.00017352)
(-0.00144305 0.00268303 0.000388043)
(0.0121109 -0.00349203 0.000347225)
(-0.0303956 -0.00387584 -0.000198392)
(0.00999572 -0.0129064 0.000647159)
(0.00513414 -0.00278985 0.000236664)
(0.00733261 -0.00233601 0.000129499)
(-0.016541 -0.00379647 -0.000214214)
(0.00807516 -0.00690653 0.000813672)
(-0.00284803 -0.00523415 -7.65558e-05)
(0.00637669 -0.00451939 0.000461687)
(0.00718201 -0.00446245 0.000427807)
(-0.014982 -0.00410417 0.000722152)
(0.00251285 0.00316473 0.000111386)
(0.00707822 0.0106977 0.00180242)
(-0.0106342 -0.000100554 -0.00248124)
(0.0026268 0.00289009 -7.16729e-05)
(-0.000744248 0.0108235 -0.00017633)
(0.00664578 0.00427899 0.000370077)
(0.013518 0.00627693 -0.000123541)
(0.00172321 0.000984578 8.02024e-05)
(0.000189956 0.00243026 7.62807e-05)
(0.00177065 0.0024669 3.52958e-05)
(0.00301278 0.00387531 5.93139e-05)
(0.00133676 -4.11944e-06 1.57766e-05)
(0.000475791 -4.10531e-05 4.23751e-05)
(0.000619049 -1.4077e-05 7.92166e-05)
(0.000458616 -6.05989e-06 2.59525e-05)
(0.000884591 -4.01605e-05 -1.33778e-06)
(0.000622087 -4.7388e-05 -1.67797e-06)
(0.00122188 -8.797e-05 -1.51113e-06)
(0.00062472 -5.34776e-05 -4.99401e-06)
(0.00065653 -5.60925e-05 -5.44936e-06)
(0.00105053 -8.51922e-05 -6.10764e-06)
(0.00110848 -8.82797e-05 -4.86132e-06)
(0.000620239 -5.00967e-05 -4.22768e-06)
(0.00103249 -6.65745e-05 -1.10258e-06)
(0.00102876 -7.35831e-05 -5.03791e-06)
(0.000856798 -1.19957e-05 -1.00323e-07)
(0.00089202 1.62697e-06 -7.13868e-07)
(0.00115148 -1.24588e-05 1.21371e-07)
(0.0008456 -1.00679e-05 3.34062e-08)
(0.000845874 -7.73717e-06 -1.72198e-07)
(0.00113162 -1.64318e-05 1.95131e-07)
(0.000836442 -5.82018e-06 7.27462e-08)
(0.00084203 -3.1468e-06 1.2667e-07)
(0.00111945 -8.80611e-06 1.93488e-07)
(0.000830549 -3.69591e-06 2.60621e-08)
(0.000833344 -1.87991e-06 4.84262e-08)
(0.00110962 -5.91501e-06 1.90753e-07)
(0.000826334 -2.19029e-06 1.75337e-08)
(0.000828547 -1.49012e-06 2.37051e-08)
(0.00110371 -3.55464e-06 1.84745e-07)
(0.00082282 -1.30744e-06 4.34276e-08)
(0.00082457 -7.04687e-07 4.41754e-08)
(0.00109875 -2.07637e-06 1.90475e-07)
(0.00082006 -7.72064e-07 2.31037e-08)
(0.000821508 -4.02907e-07 4.90389e-08)
(0.00109459 -1.2764e-06 1.85601e-07)
(0.000817775 -5.00047e-07 2.5019e-08)
(0.00081896 2.18e-07 2.3551e-08)
(0.00109141 -7.20119e-07 1.60734e-07)
(0.000815748 -3.53868e-07 6.75183e-08)
(0.000816761 -1.45678e-07 4.99041e-08)
(0.00108865 -5.81027e-07 1.82242e-07)
(0.000813798 -2.46456e-07 7.45423e-08)
(0.000814844 -8.7254e-08 9.1185e-08)
(0.00108607 -3.36321e-07 1.85652e-07)
(0.000812162 -2.06225e-07 1.41396e-07)
(0.00081305 -3.86122e-07 5.82569e-08)
(0.0010836 -3.0329e-07 1.82818e-07)
(0.000810412 -1.79246e-07 1.38161e-07)
(0.000811337 -4.94953e-08 1.21361e-07)
(0.00108138 -2.57577e-07 1.77348e-07)
(0.000808899 -9.4744e-08 6.19416e-08)
(0.000809688 3.85143e-08 7.77332e-08)
(0.00107935 -2.25496e-07 1.39013e-07)
(0.000807022 6.03522e-09 5.9658e-08)
(0.000808017 2.01729e-07 6.2251e-08)
(0.00107701 2.35142e-08 1.81568e-07)
(0.000805865 -6.10699e-09 5.05421e-08)
(0.000806408 -8.33583e-07 7.67218e-08)
(0.00107497 5.72468e-08 1.91072e-07)
(0.000804107 5.5859e-09 5.33606e-08)
(0.000804991 -1.33179e-08 3.94315e-08)
(0.0010731 -2.04369e-08 1.8302e-07)
(0.000802634 1.07298e-07 5.95332e-08)
(0.000803466 -3.03562e-07 1.45905e-08)
(0.0010709 1.05807e-07 1.97231e-07)
(0.00080118 2.18146e-07 6.52335e-08)
(0.000801914 -8.33769e-07 9.82556e-08)
(0.00106895 2.91996e-07 2.42484e-07)
(0.000799786 2.06253e-07 6.12446e-08)
(0.000800379 -9.83256e-07 9.02649e-08)
(0.00106707 3.78452e-07 2.25094e-07)
(0.000798239 2.72706e-07 6.23492e-08)
(0.000799002 7.54947e-08 4.82351e-08)
(0.00106525 1.95332e-07 1.82579e-07)
(0.000796163 1.35479e-07 1.27359e-07)
(0.000797099 -2.04643e-07 4.01577e-08)
(0.00106273 5.15515e-07 2.72824e-07)
(0.000794699 -3.6763e-07 6.36221e-08)
(0.000795088 -2.34795e-07 1.28209e-07)
(0.0010603 -2.05496e-07 1.71374e-07)
(0.000793273 -5.66184e-07 -3.41795e-08)
(0.000793869 1.80034e-06 3.86192e-08)
(0.00105849 -8.26426e-07 -1.10223e-08)
(0.000791644 -4.84114e-07 3.39535e-08)
(0.000792527 8.29254e-07 1.73897e-08)
(0.00105632 -7.14521e-07 9.60128e-08)
(0.000790587 -3.51496e-07 5.97039e-08)
(0.000791175 1.52847e-07 1.43149e-07)
(0.00105454 -5.78484e-07 1.70107e-07)
(0.000789066 -1.35447e-07 5.17842e-08)
(0.000789957 -7.82288e-08 1.69978e-07)
(0.001053 -3.04829e-07 1.6491e-07)
(0.000787638 7.36541e-08 5.27108e-08)
(0.000788449 -6.36355e-08 5.63342e-08)
(0.00105104 2.36083e-08 1.71833e-07)
(0.000786092 1.65399e-07 4.55671e-08)
(0.000786852 -9.2901e-08 3.86654e-08)
(0.001049 2.41579e-07 1.39608e-07)
(0.000784274 1.71833e-07 3.6808e-08)
(0.00078531 9.68395e-08 4.70135e-08)
(0.0010467 2.43114e-07 1.3028e-07)
(0.000782987 2.72336e-07 6.9311e-12)
(0.000783822 1.18516e-07 3.75675e-08)
(0.00104454 2.49093e-07 1.64472e-07)
(0.000781392 4.06311e-07 2.92192e-08)
(0.000782346 2.98482e-07 1.8134e-09)
(0.00104273 5.37051e-07 1.85328e-07)
(0.000780583 2.47383e-07 5.5397e-08)
(0.000780913 -9.97072e-07 6.4336e-08)
(0.00104124 5.75728e-07 1.86068e-07)
(0.000779062 1.06294e-08 5.03079e-08)
(0.00077953 1.0406e-07 4.55264e-08)
(0.00103959 8.20864e-08 1.75718e-07)
(0.000777719 -2.07994e-07 1.46475e-08)
(0.000778065 -5.82575e-08 7.25935e-08)
(0.00103759 -4.05545e-08 1.73228e-07)
(0.000776138 -3.08666e-07 9.46741e-08)
(0.00077679 1.29149e-06 1.49959e-08)
(0.00103586 -4.95228e-07 7.51307e-08)
(0.000774653 -2.24982e-07 1.32616e-07)
(0.000775466 -5.42723e-07 1.03543e-07)
(0.00103368 -3.14915e-07 1.99901e-07)
(0.000773203 -2.31542e-07 3.60625e-08)
(0.000773981 -6.52841e-09 4.63887e-08)
(0.00103171 -2.8786e-07 1.64654e-07)
(0.000771879 -2.6836e-07 4.279e-08)
(0.000772544 -3.01267e-08 4.64802e-08)
(0.00102988 -3.46666e-07 1.65716e-07)
(0.000770506 -3.89025e-07 9.36842e-08)
(0.000771169 -1.54895e-07 5.69137e-08)
(0.00102802 -3.57774e-07 1.71668e-07)
(0.000769111 -4.00358e-07 5.83399e-08)
(0.000769844 -3.92386e-07 8.84805e-08)
(0.00102637 -6.23033e-07 1.71655e-07)
(0.000767286 -2.6661e-07 2.12712e-08)
(0.000768191 1.28138e-06 3.24622e-08)
(0.00102409 -4.13363e-07 8.22437e-08)
(0.000766793 -4.88991e-07 4.67995e-08)
(0.00102172 -3.10585e-07 2.6126e-07)
(-0.00185713 0.00655716 0.000260216)
(0.00380915 0.00553241 4.58663e-05)
(0.00642233 0.000250466 -0.00031627)
(0.00316388 0.00335838 0.000646141)
(0.0081618 0.00390527 -0.000112668)
(-0.00201881 0.00959684 0.00191383)
(-0.014802 0.00301214 0.000113985)
(-0.00563376 0.00797496 0.000822762)
(0.00287207 0.0058392 0.000537106)
(0.00239013 -0.000180072 0.000368864)
(-0.00832956 0.00665479 -0.000564028)
(-0.00428425 0.00620697 -0.00257459)
(-0.00152235 0.00750622 -0.000695396)
(-0.00963327 0.00369291 -0.000431814)
(-0.00494906 0.00921956 0.0294053)
(-0.00758992 0.0138638 0.00228203)
(0.0112596 0.0220825 -0.0448464)
(-0.00102733 0.0155859 0.0111396)
(0.0117265 0.00364278 -0.00281028)
(0.017294 -0.00127916 0.00120777)
(0.00665692 0.00237263 -0.00041364)
(0.0120255 0.00751006 0.000484247)
(0.00799686 -0.00642978 -0.000164829)
(0.00799686 -0.00642978 -0.000164829)
(0.00799686 -0.00642978 -0.000164829)
(0.00799686 -0.00642978 -0.000164829)
(-0.00381316 -0.00401771 0.00046827)
(-0.00321229 -0.00858216 0.000543952)
(-0.00634995 -0.00374333 0.00105009)
(0.000703485 -0.00864631 0.000661065)
(0.00487378 -0.00605787 0.000578514)
(-0.00303185 -0.00159856 -7.34926e-05)
(-0.000646017 -0.00264016 -2.94974e-05)
(7.3409e-05 -0.00196744 -1.99141e-05)
(0.00193293 -0.00263582 0.000174981)
(-0.000552044 -0.00437256 9.28335e-06)
(0.00106484 -0.00039595 6.75799e-05)
(0.000621556 -0.000143671 3.88622e-05)
(0.00103008 -0.000153923 7.80522e-06)
(0.000882513 -0.000203782 9.26106e-06)
(0.000963229 -0.000118035 2.09709e-05)
(0.000515566 -5.81152e-05 9.70929e-07)
(0.000519918 -3.19103e-05 -3.36448e-06)
(0.000507967 -3.27971e-05 -2.50185e-07)
(0.000781805 -4.62585e-05 -1.33433e-06)
(0.000857753 4.29736e-06 -7.8592e-07)
(0.000919717 9.29431e-06 -1.71222e-06)
(0.00121951 1.10997e-05 -1.1609e-06)
(0.000630641 -1.85578e-05 -3.81255e-06)
(0.000650446 -1.06172e-05 -4.99767e-06)
(0.00104178 -4.07903e-05 -4.62296e-06)
(0.00107505 -2.50738e-05 -6.42432e-06)
(0.00084579 1.10627e-06 -7.90314e-08)
(0.000841825 6.72606e-06 -3.44033e-07)
(0.00111879 3.19867e-07 7.53671e-08)
(0.00083711 1.45855e-06 1.02376e-07)
(0.000842483 5.41444e-06 1.60851e-07)
(0.00112228 2.0547e-06 2.00154e-07)
(0.000831038 9.63387e-07 4.60772e-08)
(0.000832733 3.69447e-06 4.04564e-08)
(0.00111009 1.2227e-06 1.81743e-07)
(0.000826378 5.95347e-07 5.03402e-08)
(0.000828093 2.45536e-06 5.42085e-08)
(0.001104 8.77991e-07 1.73331e-07)
(0.000823023 3.09437e-07 4.97852e-08)
(0.000824216 1.48449e-06 5.05411e-08)
(0.00109881 3.54775e-07 1.82032e-07)
(0.000820361 1.46795e-07 4.94945e-08)
(0.000821308 9.14103e-07 5.1988e-08)
(0.00109505 2.10784e-07 1.82287e-07)
(0.000817777 1.36168e-07 4.84276e-08)
(0.000818948 1.17328e-06 5.10235e-08)
(0.00109163 1.89241e-08 2.00383e-07)
(0.000815831 2.1799e-07 7.35574e-08)
(0.000816864 3.53407e-07 4.94369e-08)
(0.00108867 2.34049e-07 1.76873e-07)
(0.000813978 3.32293e-07 7.49102e-08)
(0.000814988 -1.13546e-07 7.0451e-08)
(0.00108622 2.46769e-07 2.0512e-07)
(0.00081235 3.40269e-07 3.82019e-08)
(0.00081306 -3.83056e-07 6.53792e-08)
(0.00108391 5.4213e-07 1.83722e-07)
(0.000810493 2.60389e-07 6.09469e-08)
(0.000811237 2.3446e-07 3.34418e-08)
(0.0010816 3.02572e-07 1.84277e-07)
(0.000808845 2.53976e-07 7.80475e-08)
(0.000809679 1.04158e-08 6.2846e-08)
(0.00107931 3.70043e-07 1.87877e-07)
(0.000807324 3.72841e-07 7.93102e-08)
(0.000808164 1.65437e-07 5.31973e-08)
(0.0010772 2.95625e-07 1.77843e-07)
(0.000805572 4.50999e-07 6.56231e-08)
(0.000806504 -8.07548e-07 7.64831e-08)
(0.00107493 6.94467e-07 1.93953e-07)
(0.000804337 2.95267e-07 6.69248e-10)
(0.000804794 -9.781e-07 -2.33149e-08)
(0.00107307 5.25926e-07 2.18144e-07)
(0.000802696 1.53419e-07 5.32864e-08)
(0.000803288 4.11188e-08 6.61106e-09)
(0.00107123 3.05466e-07 1.62607e-07)
(0.000801208 6.74496e-08 1.23289e-07)
(0.000801806 1.39847e-07 8.83578e-08)
(0.00106899 1.60989e-07 1.05374e-07)
(0.000799465 -6.43801e-08 7.72687e-08)
(0.000800214 -9.80215e-08 8.29933e-08)
(0.00106677 8.43641e-08 1.33989e-07)
(0.000798209 -4.86343e-07 2.60461e-08)
(0.000798475 -2.71375e-07 5.57162e-08)
(0.00106497 -2.13041e-07 1.78281e-07)
(0.000795743 -6.69892e-07 4.09805e-08)
(0.000796871 2.42977e-06 -4.16162e-08)
(0.00106244 -1.07818e-06 7.51027e-08)
(0.000794137 -4.96262e-07 1.03235e-07)
(0.000795308 -2.06161e-07 4.87364e-08)
(0.00105955 -7.13366e-07 1.83256e-07)
(0.000793252 -3.72974e-07 9.01951e-08)
(0.000794025 -1.22249e-07 1.09467e-07)
(0.00105811 -6.0379e-07 2.58036e-07)
(0.00079199 -2.14047e-08 1.26546e-07)
(0.000792967 -1.52542e-07 5.62481e-08)
(0.00105668 -3.75638e-07 2.25344e-07)
(0.000790591 2.82678e-07 2.53415e-07)
(0.000791555 5.36495e-07 2.50467e-07)
(0.00105488 3.82021e-07 1.40961e-07)
(0.000789362 2.32993e-07 1.74564e-07)
(0.000789893 7.49365e-07 2.08367e-07)
(0.00105322 4.78686e-07 9.46455e-08)
(0.000787635 1.15644e-07 4.22942e-08)
(0.000788301 2.5129e-07 6.64669e-08)
(0.00105117 2.02106e-07 1.75837e-07)
(0.000786096 8.68261e-08 4.01092e-08)
(0.000786815 5.1308e-08 4.56773e-08)
(0.0010489 1.20365e-07 1.71389e-07)
(0.000784823 1.35494e-07 4.77759e-08)
(0.00078537 -1.46535e-07 4.77398e-08)
(0.00104708 1.27963e-07 1.75841e-07)
(0.000783219 2.59421e-07 3.9385e-08)
(0.000783976 1.94555e-07 5.32492e-08)
(0.00104527 2.74858e-07 1.82766e-07)
(0.000781802 4.12748e-07 3.69109e-08)
(0.000782536 3.94349e-07 3.35412e-08)
(0.00104316 4.9723e-07 1.64894e-07)
(0.000779857 3.16822e-07 5.44712e-08)
(0.000780792 -7.59985e-07 4.80519e-08)
(0.00104085 6.58636e-07 2.024e-07)
(0.000778593 3.8233e-08 6.78036e-08)
(0.000779181 -4.79477e-08 6.28018e-08)
(0.00103878 1.87343e-07 1.6935e-07)
(0.000777041 -2.15356e-07 7.29597e-08)
(0.000777749 -7.69558e-08 5.80164e-08)
(0.00103686 -8.56448e-08 1.85776e-07)
(0.000776183 -3.86866e-07 2.38376e-08)
(0.000776577 2.36519e-07 1.0314e-07)
(0.00103524 -4.67744e-07 1.98259e-07)
(0.000774792 -2.66179e-07 1.7333e-08)
(0.000775619 -9.32696e-08 4.17598e-08)
(0.00103389 -5.64233e-07 1.377e-07)
(0.000773314 -1.22504e-07 5.68063e-08)
(0.000774162 -5.7131e-08 7.21581e-08)
(0.0010319 -1.70877e-07 1.81778e-07)
(0.000771799 -3.9294e-08 6.06007e-08)
(0.000772649 5.91726e-08 5.5726e-08)
(0.00102991 -1.83187e-07 1.75073e-07)
(0.00077052 -5.13082e-08 5.17004e-08)
(0.000771155 3.44732e-07 5.51245e-08)
(0.0010281 8.39436e-08 1.23725e-07)
(0.00076905 -2.57532e-07 6.26199e-08)
(0.000769587 -3.84919e-07 4.90364e-08)
(0.00102621 -1.78619e-07 1.76935e-07)
(0.000767451 -3.04136e-07 5.79862e-08)
(0.000768136 4.16989e-07 7.1564e-08)
(0.00102407 -4.73943e-07 2.5247e-07)
(0.000767172 6.73046e-08 5.59904e-08)
(0.0010227 -3.20428e-07 8.4502e-08)
(0.00067737 -0.000483744 0.000281287)
(0.00470979 0.00179363 0.000179616)
(-0.00235945 -0.00215978 0.000261987)
(0.0040165 0.00372831 -5.79507e-05)
(-0.00169019 -0.00278392 7.60958e-05)
(0.00401918 -0.00583327 -3.51241e-05)
(-0.00176096 -0.000617337 0.000803274)
(-0.0131885 -0.00415095 -7.29254e-05)
(-0.00469996 0.00523407 0.00207124)
(-0.00922424 0.0039872 3.98101e-06)
(0.00436406 0.00294551 0.000375517)
(0.00468002 0.00493846 0.000576308)
(0.00381232 0.00389619 0.000334201)
(0.00401918 -0.00583327 -3.51241e-05)
(0.00401918 -0.00583327 -3.51241e-05)
(0.00401918 -0.00583327 -3.51241e-05)
(0.00205364 0.0062359 -0.000511454)
(0.00572057 0.0108916 0.00025515)
(0.00380463 0.00752732 0.000145526)
(0.00515432 0.00892668 -0.000228931)
(-0.00729118 -0.00401123 -8.08392e-05)
(0.00178304 -0.00794036 0.000501801)
(-0.00609393 -0.000334625 0.00138444)
(0.00263553 0.000426908 0.00139281)
(0.00252938 0.00449302 0.000760668)
(-0.0273584 0.00110455 0.00209491)
(1.16643e-05 -0.00349144 0.0013808)
(-0.0611476 0.0114966 -0.00276439)
(-0.0115472 -0.0107495 0.000204621)
(-0.0400745 -0.00679451 0.00593235)
(0.005866 0.00303795 -0.000536454)
(0.0123642 0.00107544 0.000230031)
(0.0119732 0.00248117 -0.000169789)
(0.0130532 0.00502451 0.000689249)
(0.0250028 -0.000676033 -0.000100321)
(0.00126871 -0.000558568 5.28728e-05)
(0.0016995 -0.000100371 0.000116853)
(0.00158046 -0.000330399 5.86315e-05)
(0.00158739 -0.000347991 2.59413e-05)
(0.00114556 -6.70386e-06 5.11238e-05)
(0.000418707 -1.37504e-05 -6.49978e-07)
(0.000567001 1.45951e-05 -3.09178e-06)
(0.000926994 -8.67333e-06 4.05468e-07)
(0.000417501 -1.44637e-05 3.83449e-06)
(0.000761045 -3.06151e-05 4.88849e-06)
(0.000755623 -2.10322e-05 1.27518e-05)
(0.000555072 -1.72566e-05 1.12657e-07)
(0.00039707 7.07734e-06 5.06946e-07)
(0.000705152 7.52982e-06 7.05471e-06)
(0.000625458 -1.03488e-06 -1.99114e-06)
(0.000358459 1.17692e-06 -1.85574e-06)
(0.000859681 1.99287e-05 -1.27078e-06)
(0.00090558 4.39712e-05 -1.88814e-06)
(0.00122223 2.84332e-05 -1.38041e-06)
(0.000658873 3.02255e-05 -4.30091e-06)
(0.000647209 4.17217e-05 -4.61072e-06)
(0.00108633 5.35106e-05 -5.60031e-06)
(0.00108936 7.35849e-05 -5.28501e-06)
(0.000844848 1.27503e-05 -1.04316e-07)
(0.000833001 2.48917e-05 -4.06773e-07)
(0.00112015 1.81246e-05 6.72979e-08)
(0.000835381 8.21238e-06 9.89705e-08)
(0.000836799 1.49965e-05 1.53966e-07)
(0.00112062 1.18807e-05 1.97411e-07)
(0.00082957 5.1837e-06 4.85832e-08)
(0.000828938 9.00846e-06 3.16449e-08)
(0.00110818 7.59684e-06 1.77242e-07)
(0.000825476 3.23486e-06 5.44107e-08)
(0.000825651 5.55134e-06 5.67541e-08)
(0.00110264 4.74424e-06 1.83205e-07)
(0.000822315 1.999e-06 5.27435e-08)
(0.000822668 3.42863e-06 5.14533e-08)
(0.00109793 2.97039e-06 1.82273e-07)
(0.000819729 1.1755e-06 5.35173e-08)
(0.000820277 2.12027e-06 5.18385e-08)
(0.00109418 1.79952e-06 1.83392e-07)
(0.000818025 6.69327e-07 5.20333e-08)
(0.000818314 1.25648e-06 5.23852e-08)
(0.00109145 9.95069e-07 1.84866e-07)
(0.000815911 4.11611e-07 4.63237e-08)
(0.000816542 7.59361e-07 4.85117e-08)
(0.00108894 5.81548e-07 1.97852e-07)
(0.000814187 1.84065e-07 6.09216e-08)
(0.000814703 1.73174e-07 6.6092e-08)
(0.00108646 3.77099e-07 1.72283e-07)
(0.000811775 4.8497e-08 6.06294e-08)
(0.000812891 7.81202e-07 5.88024e-08)
(0.00108367 6.73612e-09 1.71259e-07)
(0.000810446 7.45266e-08 3.53314e-08)
(0.00081127 -7.70647e-08 3.62057e-08)
(0.00108117 4.36886e-08 1.79739e-07)
(0.000808918 1.27601e-07 3.79988e-08)
(0.000809745 1.21898e-07 5.27962e-08)
(0.00107934 9.77391e-08 1.67807e-07)
(0.000807502 1.90627e-07 5.03628e-08)
(0.000808243 -1.9498e-08 4.81449e-08)
(0.00107741 1.92104e-07 1.79012e-07)
(0.000805623 2.32297e-07 -1.24231e-08)
(0.000806555 -1.45961e-07 2.3175e-08)
(0.00107525 2.81875e-07 1.6067e-07)
(0.000803711 1.7651e-07 -1.73826e-08)
(0.000804724 -5.12462e-08 -5.13845e-09)
(0.00107261 3.39812e-07 1.45184e-07)
(0.000802354 6.08935e-08 4.16565e-08)
(0.000803142 -1.13904e-07 3.53653e-08)
(0.00107044 1.30358e-07 1.72659e-07)
(0.000800924 -6.93227e-08 4.80633e-08)
(0.000801643 -1.018e-07 3.449e-08)
(0.00106867 1.48484e-08 1.85433e-07)
(0.000799245 -1.48676e-07 6.14494e-08)
(0.000800115 1.54143e-07 6.04891e-08)
(0.0010666 -1.71314e-07 1.72913e-07)
(0.000797073 -2.16411e-07 -1.19154e-08)
(0.000798391 -1.01434e-07 7.3678e-08)
(0.0010638 -1.55546e-07 2.22327e-07)
(0.000796473 2.07366e-08 -3.38888e-08)
(0.000797167 -1.05608e-06 -4.35628e-08)
(0.00106211 -3.47148e-07 3.42037e-07)
(0.000794982 5.14288e-07 5.49494e-08)
(0.000795923 -1.23686e-06 3.66718e-08)
(0.0010609 4.7607e-07 2.4796e-07)
(0.000793858 6.80851e-07 7.55364e-08)
(0.00079423 -9.76716e-07 5.44439e-08)
(0.00105892 9.45864e-07 2.03664e-07)
(0.000792581 5.66903e-07 1.80109e-07)
(0.000792821 -1.9331e-06 -1.57619e-08)
(0.00105755 8.89654e-07 2.83266e-07)
(0.00079086 4.24492e-07 2.05433e-07)
(0.000791375 4.5421e-07 1.74057e-07)
(0.00105561 6.35769e-07 2.0267e-07)
(0.000788825 2.46073e-07 1.00314e-07)
(0.000789669 2.09392e-07 8.20077e-08)
(0.00105277 4.93042e-07 2.6365e-07)
(0.00078745 1.38838e-07 6.98565e-08)
(0.000788167 4.07315e-08 7.05568e-08)
(0.00105058 1.39312e-07 1.81768e-07)
(0.000786096 1.6435e-07 5.33074e-08)
(0.000786847 -1.10346e-07 4.64694e-08)
(0.00104891 1.96741e-07 1.76776e-07)
(0.0007845 1.21054e-07 5.32114e-08)
(0.000785316 4.21324e-08 4.50107e-08)
(0.00104689 2.11758e-07 1.73799e-07)
(0.000783256 6.2233e-08 4.74114e-08)
(0.000783902 -4.32184e-08 4.78765e-08)
(0.001045 9.80249e-08 1.73043e-07)
(0.000781734 -1.7064e-08 4.46777e-08)
(0.000782437 5.61659e-07 2.97754e-08)
(0.00104321 4.84516e-08 1.69099e-07)
(0.000779895 7.61528e-09 5.63779e-08)
(0.000780823 -4.21275e-07 3.5415e-08)
(0.00104085 -8.99789e-08 1.85575e-07)
(0.000778447 1.24169e-07 5.3016e-08)
(0.000779326 -3.67718e-09 6.41979e-08)
(0.00103866 1.24846e-07 1.71834e-07)
(0.000777044 3.2449e-07 8.81829e-08)
(0.000777998 -1.00502e-08 3.74704e-08)
(0.00103677 2.07283e-07 1.66143e-07)
(0.000776152 4.23512e-07 1.21081e-07)
(0.000776699 8.80121e-07 1.07716e-07)
(0.00103527 6.73514e-07 7.84423e-08)
(0.000775094 2.96791e-07 9.65756e-08)
(0.000775458 -1.59257e-06 3.80268e-08)
(0.00103405 5.06681e-07 2.48769e-07)
(0.000773456 2.36528e-07 7.10829e-08)
(0.000774084 -2.42638e-08 5.54255e-08)
(0.00103219 3.87252e-07 1.90212e-07)
(0.000771966 2.75337e-07 5.02501e-08)
(0.000772695 -5.41238e-08 4.77722e-08)
(0.0010302 3.53158e-07 1.8761e-07)
(0.000770227 2.37707e-07 5.24624e-08)
(0.000771106 2.00005e-07 6.24953e-08)
(0.00102802 4.44171e-07 2.12582e-07)
(0.000768658 1.17396e-07 5.79738e-08)
(0.000769435 -5.468e-08 5.41973e-08)
(0.00102568 2.39627e-07 1.62311e-07)
(0.00076766 7.60171e-08 6.95729e-08)
(0.000768082 -2.08008e-07 5.07772e-08)
(0.00102392 1.18834e-07 1.80026e-07)
(0.000767077 1.23139e-07 6.45849e-08)
(0.00102271 9.89742e-08 1.59606e-07)
(0.00182976 -0.000116657 -2.55408e-05)
(4.46389e-05 0.000412652 0.000107323)
(0.00607892 0.00384262 9.83319e-06)
(4.46389e-05 0.000412652 0.000107323)
(4.46389e-05 0.000412652 0.000107323)
(4.46389e-05 0.000412652 0.000107323)
(-0.00488841 -0.00677596 1.47389e-05)
(-0.0062203 0.00299126 -0.000352058)
(-0.00280504 0.00508329 0.000332284)
(-0.00659451 -0.00454802 -7.85164e-05)
(-0.0080726 -0.00295777 0.00184312)
(-0.0146578 -0.00583749 -0.0015722)
(-0.00582514 0.00500709 -0.000128373)
(0.00364458 0.00667333 -0.000888119)
(-0.00428852 0.00623675 5.21651e-05)
(-0.0125859 -0.00117121 6.16983e-05)
(-0.00668075 -0.0105877 -3.1288e-05)
(-0.011529 -0.00643831 0.00124397)
(-0.00295735 -0.00162604 0.000254684)
(0.0100097 0.00858134 4.72679e-05)
(0.00191844 0.00826732 0.000200232)
(-0.00438127 0.00406993 -0.00144017)
(0.00462558 0.0023323 0.000126792)
(0.00828882 0.00716591 9.27269e-05)
(0.0164875 0.00606389 0.000640421)
(0.0018741 0.00388855 -6.88109e-05)
(0.00632881 0.0067897 -7.62598e-05)
(0.00480686 0.0132574 0.000232173)
(-0.00600954 0.00620628 2.51158e-05)
(0.00734658 -0.0026739 6.81493e-05)
(-0.00602174 0.000686954 0.000276807)
(0.00813845 -0.00772439 -0.000371699)
(0.0096006 0.000701662 0.000101493)
(-0.0094177 0.00744789 0.00066091)
(0.00100836 0.00848971 0.000726587)
(-0.00391676 0.0177459 -0.000483653)
(0.00532755 -0.00403424 0.00452071)
(-0.0006741 0.00711718 -0.00313419)
(0.00613311 -0.000559664 -0.00281964)
(0.0141395 0.00676625 -6.65244e-05)
(0.0122355 0.00452896 0.000151451)
(0.0130729 0.00946277 -1.77758e-05)
(0.0189113 -0.0112055 0.000306899)
(0.0193412 0.00448865 0.00104767)
(0.00662329 0.000578653 0.00308455)
(0.00319848 -0.00121216 0.000462911)
(-0.0219585 -0.00183315 -0.000221711)
(-0.00506812 -0.00226397 -6.98845e-05)
(-0.00201381 -0.000435388 -2.84374e-07)
(-0.00252766 0.00420201 7.22154e-05)
(-0.0102218 0.00198623 -0.000663793)
(0.00137784 0.000697635 -0.000107008)
(0.00119255 0.000319087 6.74633e-06)
(0.000690349 3.15502e-05 -5.45855e-05)
(0.00109008 -0.000681081 -3.89954e-05)
(0.000868429 0.000754623 -1.45123e-05)
(0.00129683 0.0004797 -0.00026448)
(0.000805557 0.00102285 2.75252e-05)
(0.00100768 -0.000158807 3.29648e-05)
(0.00145925 -3.83544e-05 7.99212e-05)
(0.00138374 0.000237619 2.665e-06)
(0.00111106 4.12776e-05 -7.76518e-06)
(0.00198161 0.000994324 8.65389e-05)
(0.0022752 0.000740544 4.17465e-05)
(0.0010167 0.000185847 9.14615e-05)
(0.000581019 -6.74797e-05 3.01623e-05)
(0.000385158 9.95203e-06 7.53323e-06)
(0.000448434 2.2414e-05 1.97371e-05)
(0.000655747 3.82236e-05 2.31405e-05)
(0.000297316 2.69443e-05 4.2851e-06)
(0.000836661 3.86688e-05 -1.02461e-06)
(0.000869716 5.14227e-05 -1.564e-06)
(0.00118796 5.87752e-05 -1.17925e-06)
(0.000630024 3.05441e-05 -4.27539e-06)
(0.000609197 3.48042e-05 -5.0588e-06)
(0.00105761 3.57912e-05 -4.96841e-06)
(0.00101525 4.60247e-05 -4.82788e-06)
(0.000832043 2.25714e-05 -1.48675e-07)
(0.000812561 3.01902e-05 -4.24053e-07)
(0.00109857 3.42634e-05 7.38831e-08)
(0.000828014 1.34972e-05 8.66801e-08)
(0.000825412 1.76634e-05 1.4884e-07)
(0.0011091 2.03715e-05 2.06202e-07)
(0.000825012 8.18817e-06 3.98076e-08)
(0.000822274 1.06852e-05 4.00363e-08)
(0.00110116 1.24671e-05 1.86311e-07)
(0.000822584 4.97939e-06 5.37984e-08)
(0.000821622 6.4888e-06 6.87819e-08)
(0.00109821 7.51184e-06 1.88523e-07)
(0.000820534 3.11358e-06 5.05482e-08)
(0.000820324 3.94585e-06 5.06464e-08)
(0.00109513 4.6527e-06 1.85063e-07)
(0.00081871 2.01411e-06 5.07062e-08)
(0.000818895 2.41431e-06 3.91216e-08)
(0.00109258 3.0002e-06 1.80784e-07)
(0.000816879 1.23069e-06 4.88648e-08)
(0.00081733 1.52285e-06 5.2263e-08)
(0.0010901 1.9861e-06 1.8313e-07)
(0.000815331 6.49402e-07 6.82744e-08)
(0.000815812 8.55e-07 4.83887e-08)
(0.0010879 1.06037e-06 1.70569e-07)
(0.000813417 2.31978e-07 6.39751e-08)
(0.00081418 8.13297e-07 6.97717e-08)
(0.0010855 5.39027e-07 1.64334e-07)
(0.000812274 -7.41823e-08 3.43859e-08)
(0.000812508 1.32399e-07 4.41718e-08)
(0.0010835 1.14403e-08 1.86833e-07)
(0.00081061 -1.07106e-07 5.36651e-08)
(0.000811229 7.62356e-09 8.93288e-08)
(0.00108172 -2.39806e-07 1.81305e-07)
(0.000809012 -8.0051e-08 6.29437e-08)
(0.00080978 5.93213e-08 7.158e-08)
(0.0010795 -6.81483e-08 1.85984e-07)
(0.000807452 -1.62071e-07 2.0965e-08)
(0.000808141 -4.67635e-08 4.13327e-08)
(0.00107743 -1.74445e-07 1.8061e-07)
(0.000805531 -1.40536e-07 3.04687e-08)
(0.000806583 5.00356e-07 3.55054e-08)
(0.00107511 -2.82812e-07 1.65357e-07)
(0.000804158 1.59225e-08 4.75966e-08)
(0.00080492 -4.81656e-07 7.68209e-08)
(0.00107288 -1.16235e-07 1.92993e-07)
(0.000802403 1.67927e-07 2.81991e-08)
(0.000803332 8.35287e-08 4.55958e-08)
(0.00107082 1.22535e-07 1.82739e-07)
(0.000800818 2.36449e-07 4.69075e-08)
(0.000801728 -1.58745e-09 4.71683e-08)
(0.00106861 2.82053e-07 1.75039e-07)
(0.0007994 2.97214e-07 7.27135e-08)
(0.00080019 -2.04214e-09 6.52765e-08)
(0.00106656 3.25919e-07 1.78678e-07)
(0.000798167 6.49486e-07 4.20676e-08)
(0.000798829 -4.50814e-07 4.79577e-08)
(0.00106475 4.98985e-07 1.76417e-07)
(0.000796915 8.4332e-07 2.69725e-08)
(0.000797406 -1.84394e-06 4.66243e-09)
(0.00106323 1.31181e-06 2.09344e-07)
(0.000795045 7.53725e-07 3.61607e-08)
(0.000795807 3.13325e-07 4.04673e-08)
(0.00106116 1.01025e-06 9.92075e-08)
(0.000793241 7.53149e-07 -3.68323e-08)
(0.000794226 -2.81782e-07 3.98061e-08)
(0.00105862 1.04659e-06 1.54239e-07)
(0.000791551 4.70594e-07 -2.18727e-08)
(0.000792465 2.23171e-07 -3.0663e-08)
(0.00105629 1.01043e-06 4.07895e-08)
(0.000790299 9.95073e-08 5.06614e-08)
(0.000790909 2.36032e-07 4.41062e-08)
(0.00105438 2.7528e-07 1.70614e-07)
(0.000788859 6.58147e-08 5.22536e-08)
(0.000789626 1.31159e-07 5.07474e-08)
(0.0010526 -9.94964e-09 1.77868e-07)
(0.00078765 1.05363e-07 4.71773e-08)
(0.000788216 3.27864e-08 6.14007e-08)
(0.0010508 1.91878e-07 1.52643e-07)
(0.000786055 5.33898e-08 3.81733e-08)
(0.000786782 4.57412e-08 4.38482e-08)
(0.00104899 9.06916e-08 1.75527e-07)
(0.000784647 1.69709e-08 3.9675e-08)
(0.00078527 -1.28183e-08 3.74039e-08)
(0.00104695 4.23174e-08 1.74396e-07)
(0.000783161 -1.48514e-07 3.02461e-08)
(0.000783696 -1.40004e-07 5.06861e-08)
(0.00104506 -2.05328e-08 1.84683e-07)
(0.000781496 -2.7337e-07 2.0511e-08)
(0.000782282 1.69126e-06 5.43243e-08)
(0.00104293 -4.04092e-07 1.12858e-07)
(0.000780265 -1.0574e-07 4.3226e-08)
(0.000781033 -1.99517e-07 5.69982e-08)
(0.00104094 -3.58004e-07 1.39244e-07)
(0.000778821 1.2131e-07 4.86605e-08)
(0.00077961 -2.1417e-07 5.93122e-08)
(0.00103915 5.5781e-08 1.89791e-07)
(0.000777675 2.87203e-07 5.69818e-08)
(0.000778204 -4.34578e-07 2.1215e-07)
(0.00103754 3.08546e-07 1.78501e-07)
(0.000775948 3.96696e-07 2.4683e-08)
(0.000776834 -6.58637e-08 6.17573e-08)
(0.00103561 5.41815e-07 2.68967e-07)
(0.000774511 2.43047e-07 -3.12866e-09)
(0.000775264 2.95514e-07 1.9932e-08)
(0.00103353 5.80799e-07 3.76006e-08)
(0.000773291 4.31854e-08 3.21171e-08)
(0.000773834 1.10658e-07 3.94937e-08)
(0.0010317 1.06453e-07 1.44933e-07)
(0.000772002 -1.60871e-08 6.00129e-08)
(0.000772621 -8.39888e-09 4.36544e-08)
(0.00102998 4.15638e-08 1.57686e-07)
(0.000770092 1.08369e-08 6.42327e-08)
(0.000771139 -4.30963e-07 2.30035e-08)
(0.00102795 -7.2853e-08 2.63572e-07)
(0.000768925 1.80158e-07 4.70017e-08)
(0.000769647 -2.8875e-07 2.12169e-08)
(0.0010258 1.05453e-07 1.66798e-07)
(0.00076734 2.56526e-07 4.57849e-08)
(0.000768174 5.97237e-08 9.86625e-08)
(0.00102389 3.68687e-07 1.68461e-07)
(0.000766757 3.71736e-07 7.23513e-08)
(0.00102243 3.09564e-07 1.20638e-07)
(4.46389e-05 0.000412652 0.000107323)
(7.68902e-05 -0.000426505 0.00024728)
(4.46389e-05 0.000412652 0.000107323)
(-0.00394563 0.00829166 -0.000351935)
(-0.000352027 0.00961123 -0.000433641)
(0.00110636 0.00847828 -0.00117485)
(-0.0127247 0.00625047 -0.000263371)
(-0.00176852 -0.00324392 -0.000165402)
(-0.00281069 -0.000699251 -0.000190322)
(-7.23058e-05 -0.00340757 7.13041e-05)
(0.000791005 -0.00478058 -0.000312931)
(0.000592693 -0.00996248 -0.000126116)
(0.000413729 0.00614668 0.000120067)
(-0.000410388 0.00268498 0.000164253)
(0.00391658 0.00802159 0.00015629)
(-0.00362078 0.0017648 0.00048892)
(0.00140598 0.0063974 -0.000301206)
(0.00119066 -0.000861778 0.000987161)
(-0.00775217 0.00712293 -0.00124371)
(0.00114598 -0.00240337 0.000307458)
(-0.00112149 -0.0125438 0.000235448)
(-0.000225131 -0.00293181 0.000160646)
(0.0102696 -0.000256468 -0.00159884)
(-0.00254302 -0.00375994 -0.000258109)
(-0.00431432 -0.00960709 -0.00209806)
(-0.00257714 0.0159376 0.000875372)
(-0.00244179 -0.0139319 0.0134745)
(-0.0033672 -0.00728168 -0.00928881)
(-0.00598791 -0.00821386 -0.00721962)
(-0.00415314 -0.0132761 0.00253221)
(0.00216521 -0.00534635 9.6471e-05)
(0.00292984 -0.0142581 0.000169492)
(0.00355913 -0.00790842 0.000188666)
(0.0082042 -0.0165752 -0.00150755)
(0.00692354 -0.0121712 0.000703435)
(0.00110529 -0.00104624 -2.93754e-05)
(0.000277834 0.000534631 -3.33233e-05)
(0.000923878 0.000739743 -7.68054e-06)
(0.000586259 0.000641052 6.28151e-07)
(0.000212988 0.000187926 1.52598e-05)
(0.000569213 -0.00313002 -0.000157524)
(0.0012457 -0.000192091 6.03931e-06)
(8.58044e-05 0.000668829 -1.03016e-05)
(0.000699155 0.000663452 4.75289e-05)
(0.00110798 0.00102859 3.99861e-06)
(0.00055377 0.000498076 1.14223e-05)
(0.00151003 0.00032312 2.46237e-05)
(0.000500567 -7.43177e-05 5.00442e-05)
(0.000501747 -4.39906e-05 4.38149e-05)
(0.000680909 -2.37606e-05 8.6452e-05)
(0.000462545 -2.41584e-05 2.71332e-05)
(0.000806851 3.32177e-05 -9.63809e-07)
(0.000837526 2.62792e-05 -1.62362e-06)
(0.00113732 5.1457e-05 -9.61334e-07)
(0.000588429 4.85677e-05 -4.55008e-06)
(0.000570343 4.09582e-05 -4.21781e-06)
(0.00098366 8.59177e-05 -3.17794e-06)
(0.000956455 7.25712e-05 1.93285e-06)