/*--------------------------------*- C++ -*----------------------------------*\
| =========                 |                                                 |
| \\      /  F ield         | OpenFOAM: The Open Source CFD Toolbox           |
|  \\    /   O peration     | Version:  5.0                                   |
|   \\  /    A nd           | Web:      www.OpenFOAM.org                      |
|    \\/     M anipulation  |                                                 |
\*---------------------------------------------------------------------------*/
FoamFile
{
    version     2.0;
    format      ascii;
    class       volScalarField;
    location    "2.2";
    object      alpha.water;
}
// * * * * * * * * * * * * * * * * * * * * * * * * * * * * * * * * * * * * * //

dimensions      [0 0 0 0 0 0 0];

internalField   nonuniform List<scalar> 
7975
(
1.02882
0.994643
0.807119
1.01339
0.9782
1.00177
-2.91906e-19
-1.03609e-21
-1.77792e-23
8.95266e-18
3.35462e-19
3.38201e-22
1.26305e-26
2.25334e-30
8.84648e-34
3.77187e-37
1.51112e-40
6.51208e-44
2.80987e-47
1.06322e-50
5.19416e-54
2.36732e-57
9.98381e-61
3.77919e-64
2.28949e-67
3.16549e-70
1.45662e-73
1.43529e-77
1.10139e-80
6.12697e-84
1.45361e-86
2.16756e-90
4.50568e-93
1.60537e-95
3.62691e-99
2.32892e-102
1.64879e-105
4.02659e-108
3.07856e-112
2.7818e-116
8.05202e-119
2.09864e-121
1.53233e-124
6.49348e-127
8.16764e-131
1.52716e-133
2.88949e-137
1.57504e-141
3.74783e-143
2.70917e-145
1.04099
0.976439
0.99764
1.028
1.00396
0.994617
-7.41735e-16
-3.89272e-19
-4.93723e-24
5.42818e-19
3.32907e-20
8.42807e-23
1.19587e-26
1.27008e-30
4.20605e-34
1.70771e-37
7.13558e-41
2.98212e-44
1.28907e-47
5.13118e-51
2.16851e-54
8.91842e-58
4.66112e-61
2.26332e-64
7.49417e-68
4.96708e-71
1.64731e-74
6.14602e-78
2.80534e-81
1.87481e-84
1.0286e-87
2.88989e-90
3.67971e-94
4.61645e-97
1.857e-100
2.56738e-103
1.09653e-106
8.22258e-111
3.18979e-112
2.4243e-115
3.31332e-119
4.2355e-122
3.42238e-126
6.98838e-130
1.49939e-132
2.11705e-135
1.32467e-138
1.74558e-142
3.22544e-145
7.28091e-146
1.00837
1.03891
0.992361
1.03118
1.03007
1.00712
0.327245
-3.01887e-18
5.72421e-15
1.01445e-16
7.71621e-20
1.81047e-21
6.67161e-24
1.23784e-27
9.53819e-32
3.19958e-35
1.31093e-38
5.40129e-42
2.22294e-45
9.11787e-49
3.74246e-52
1.52818e-55
6.25731e-59
2.54249e-62
1.04185e-65
4.27943e-69
1.74669e-72
6.87693e-76
3.00182e-79
1.66312e-82
4.81835e-86
1.85969e-89
9.02652e-92
6.84223e-95
1.01365e-98
4.68749e-102
1.88344e-105
3.15644e-109
2.59585e-111
2.15771e-114
4.43395e-118
2.11613e-121
3.15896e-124
4.09834e-128
5.59543e-131
2.75022e-134
8.13973e-137
4.76738e-140
6.33001e-144
2.70423e-145
1.00604
0.999319
0.97248
1.05062
1.00148
0.998946
1
-2.83215e-16
-5.21005e-18
4.86693e-17
2.9553e-18
8.32582e-21
6.71435e-24
2.4679e-27
3.45358e-31
1.06307e-34
4.36767e-38
1.87072e-41
7.78495e-45
3.25613e-48
1.37592e-51
5.70864e-55
2.71064e-58
1.13001e-61
4.6777e-65
2.00029e-68
7.34571e-72
8.94347e-75
2.11248e-78
6.07999e-82
1.58256e-84
2.04095e-87
4.43032e-91
8.13426e-95
2.37487e-97
4.9951e-101
1.64725e-104
2.68453e-107
1.30112e-109
6.92225e-113
8.23524e-117
2.67319e-119
4.50336e-123
6.22431e-126
6.51565e-129
2.62403e-132
6.53182e-136
2.38878e-139
1.49357e-142
7.09998e-145
1.04988
0.983423
0.999746
1.0174
0.974947
1.00056
1.00069
-1.64045e-15
-6.02278e-19
1.49585e-16
2.15621e-17
1.09387e-19
2.39021e-23
2.99034e-27
7.74571e-31
2.89716e-34
1.18601e-37
4.99256e-41
2.10001e-44
8.99247e-48
3.67552e-51
1.80315e-54
6.46449e-58
2.90854e-61
1.35187e-64
7.58057e-68
3.71979e-71
1.70156e-74
3.62674e-77
7.37352e-81
9.95231e-84
7.30912e-88
5.28398e-90
8.78478e-94
8.05307e-98
1.02953e-100
6.0464e-103
1.47087e-106
8.78533e-111
8.48445e-113
4.71633e-117
6.45992e-121
2.39858e-124
7.55904e-127
8.80125e-129
3.27833e-132
2.47281e-134
1.29291e-137
1.56904e-140
2.10415e-144
0.999594
1.02556
0.985867
0.989187
1.02946
1.00092
1.00109
-1.90869e-18
-1.15394e-18
5.69726e-17
1.70096e-17
9.47931e-20
2.05425e-23
2.37055e-27
6.22527e-31
2.33883e-34
9.72668e-38
4.47933e-41
1.78304e-44
8.73797e-48
3.31528e-51
1.35053e-54
5.50983e-58
2.82861e-61
9.95167e-65
5.34214e-67
7.26471e-71
1.74214e-74
4.95601e-77
8.37003e-80
1.02079e-82
1.23722e-86
1.35326e-90
1.02571e-93
2.10991e-96
4.81728e-100
3.64648e-103
6.5039e-106
4.52722e-110
8.86433e-114
2.2796e-115
9.84455e-118
3.98116e-121
4.12772e-125
1.50885e-128
1.37297e-131
1.11587e-135
2.98979e-139
1.98662e-142
3.05194e-145
1.05876
1.07793
0.97826
0.931775
1.01314
1.01008
1.00149
-2.60755e-15
-1.11253e-18
4.55897e-17
2.80014e-18
8.23115e-21
7.48989e-24
2.98967e-27
4.05884e-31
1.21467e-34
4.97764e-38
2.09856e-41
8.84152e-45
3.72108e-48
1.65868e-51
6.54786e-55
2.84356e-58
1.15492e-61
5.96584e-65
2.00333e-68
8.1159e-72
4.09801e-75
1.01317e-77
1.47804e-81
3.28337e-85
3.60151e-88
6.58773e-92
7.41466e-95
2.35681e-98
3.94792e-101
1.09069e-104
4.81462e-107
3.33661e-110
4.26899e-113
4.1872e-117
3.44159e-120
1.0768e-123
1.32197e-127
1.39696e-129
3.55365e-133
2.58239e-135
7.35032e-139
5.12175e-143
1.22203e-144
1.00634
0.833117
1.00162
1.00061
0.961897
0.976048
0.993995
-4.30427e-18
5.72034e-15
1.27351e-16
9.62948e-20
2.02231e-21
7.08298e-24
1.25859e-27
1.00238e-31
3.40308e-35
1.39558e-38
5.75261e-42
2.36765e-45
9.74343e-49
3.98598e-52
1.6358e-55
6.68382e-59
2.71217e-62
1.10231e-65
4.60023e-69
2.04834e-72
7.57832e-76
2.98526e-79
1.7875e-82
5.26501e-86
4.374e-89
2.41179e-92
5.91666e-96
3.42874e-99
6.95299e-102
9.21276e-106
1.4171e-108
1.10432e-111
9.29332e-116
2.20249e-119
2.08938e-121
1.83492e-124
1.23163e-127
1.07141e-131
2.02608e-135
7.23364e-139
2.80266e-142
3.22299e-145
1.2715e-145
1.03092
0.996931
1.01243
1.02322
1.01476
1.01201
0.21664
-1.66378e-19
-4.19411e-22
7.8433e-19
3.91331e-20
7.05365e-23
9.95798e-27
1.2431e-30
4.14565e-34
1.69839e-37
7.09728e-41
2.96869e-44
1.25014e-47
5.1801e-51
2.12806e-54
8.94116e-58
3.67548e-61
1.54051e-64
1.51278e-67
3.24223e-71
1.18525e-74
5.06165e-78
2.03604e-81
8.08508e-85
1.18801e-86
5.69737e-90
4.71036e-94
9.78971e-98
4.37538e-100
1.91443e-103
1.04978e-106
1.29339e-110
2.76171e-114
2.60178e-116
5.89737e-119
9.5531e-122
1.98235e-125
1.60274e-129
4.53856e-133
2.4536e-136
2.72556e-138
5.58553e-141
7.16133e-144
2.03441e-145
1.05202
1.00032
0.957309
0.987169
0.986392
1.01358
-9.34053e-17
-1.29438e-21
-2.89163e-26
7.70631e-18
4.75343e-19
1.16374e-21
8.2183e-26
7.48514e-30
2.7781e-33
1.1484e-36
4.65243e-40
1.9069e-43
7.82507e-47
3.46288e-50
1.32666e-53
5.33511e-57
2.12643e-60
8.51496e-64
3.66941e-67
1.43332e-70
6.91686e-74
3.23815e-77
1.93681e-79
3.70558e-83
6.62378e-87
2.85557e-89
2.42463e-92
1.02622e-95
6.71303e-100
1.42666e-102
4.18827e-105
5.38003e-109
2.33786e-111
2.89078e-115
5.33302e-119
7.5047e-123
1.54745e-124
4.82849e-128
6.55586e-131
5.78416e-134
2.58747e-137
1.27803e-140
2.39911e-144
2.0993e-145
0.880096
1.01348
0.767911
0.954783
0.945265
1
8.32277e-09
1.60936e-14
2.59701e-17
1.37971e-17
1.5869e-18
1.774e-20
1.073e-23
9.1858e-28
4.13617e-31
3.0461e-34
2.12787e-37
1.46197e-40
1.00294e-43
6.86703e-47
4.69649e-50
3.20548e-53
2.18257e-56
1.48405e-59
1.00697e-62
6.81688e-66
4.60952e-69
3.11068e-72
2.09392e-75
1.40703e-78
9.43209e-82
6.30826e-85
4.21451e-88
2.81023e-91
1.87144e-94
1.24402e-97
8.24667e-101
5.45265e-104
3.60066e-107
2.37494e-110
1.56333e-113
1.02735e-116
6.73774e-120
4.40893e-123
2.88101e-126
1.87756e-129
1.22149e-132
7.93853e-136
5.14773e-139
1.98447e-142
1.25772
0.99083
1.03012
1.0509
1.00449
0.993014
4.96748e-07
3.36571e-14
4.29922e-17
9.53555e-18
4.09979e-19
1.38978e-21
3.47952e-25
6.07889e-29
3.77346e-32
2.75162e-35
1.95129e-38
1.36617e-41
9.55242e-45
6.66286e-48
4.64341e-51
3.22778e-54
2.23942e-57
1.55206e-60
1.07318e-63
7.4037e-67
5.09926e-70
3.50395e-73
2.40186e-76
1.64367e-79
1.12532e-82
7.66838e-86
5.21311e-89
3.54263e-92
2.40322e-95
1.62627e-98
1.09858e-101
7.39859e-105
4.97806e-108
3.3401e-111
2.23642e-114
1.49449e-117
9.9724e-121
6.64842e-124
4.41727e-127
2.93133e-130
1.94059e-133
1.28266e-136
8.45946e-140
3.33605e-143
1.00179
0.988507
0.976873
1.01068
1.02301
1.0072
0.336789
1.67583e-11
2.41446e-14
1.2492e-15
2.71601e-18
1.43561e-21
9.03778e-25
3.97571e-28
2.4735e-31
1.83676e-34
1.35951e-37
9.88899e-41
7.14734e-44
5.14914e-47
3.69781e-50
2.64739e-53
1.88795e-56
1.3425e-59
9.50809e-63
6.71242e-66
4.72728e-69
3.31733e-72
2.32086e-75
1.62239e-78
1.13005e-81
7.8517e-85
5.44499e-88
3.76328e-91
2.59004e-94
1.7802e-97
1.22082e-100
8.34817e-104
5.6963e-107
3.87533e-110
2.62867e-113
1.77937e-116
1.20327e-119
8.11466e-123
5.46196e-126
3.66833e-129
2.45675e-132
1.64151e-135
1.09405e-138
4.32109e-142
1.0648
0.988044
0.993596
1.07756
1
0.999193
1.0002
1.26502e-10
2.52738e-16
1.73373e-16
2.26858e-17
2.38829e-19
1.48785e-22
1.64087e-26
7.56303e-30
5.61648e-33
4.03998e-36
2.84126e-39
1.9942e-42
1.39905e-45
9.80118e-49
6.85234e-52
4.77853e-55
3.33053e-58
2.31416e-61
1.60496e-64
1.11172e-67
7.68539e-71
5.30676e-74
3.65401e-77
2.51102e-80
1.72215e-83
1.17816e-86
8.04741e-90
5.48722e-93
3.73468e-96
2.5368e-99
1.71929e-102
1.16269e-105
7.84692e-109
5.28393e-112
3.55908e-115
2.38871e-118
1.59918e-121
1.06769e-124
7.12195e-128
4.73981e-131
3.1487e-134
2.08683e-137
8.19065e-141
1.0301
0.959522
0.995965
1.02293
0.984943
1.00191
1.00147
1.56527e-09
2.38826e-15
2.43273e-16
2.38209e-16
4.61922e-18
3.71637e-21
3.12144e-25
1.15736e-28
8.56379e-32
6.02273e-35
4.14862e-38
2.85315e-41
1.95948e-44
1.34435e-47
9.2069e-51
6.29049e-54
4.2938e-57
2.92471e-60
1.9879e-63
1.34991e-66
9.14967e-70
6.18725e-73
4.17735e-76
2.81559e-79
1.89371e-82
1.27233e-85
8.52909e-89
5.70719e-92
3.81506e-95
2.54501e-98
1.69392e-101
1.12602e-104
7.47578e-108
4.95502e-111
3.28001e-114
2.16683e-117
1.42852e-120
9.40595e-124
6.18244e-127
4.05571e-130
2.65721e-133
1.73772e-136
6.74054e-140
0.998722
0.900096
0.970395
0.962172
0.999695
0.999692
1.00168
7.24517e-09
3.42074e-15
7.97113e-16
4.42034e-16
8.06771e-18
6.92319e-21
5.89268e-25
2.14652e-28
1.58696e-31
1.11547e-34
7.67491e-38
5.27208e-41
3.61502e-44
2.47449e-47
1.69137e-50
1.15351e-53
7.85343e-57
5.33544e-60
3.6163e-63
2.44995e-66
1.65638e-69
1.11727e-72
7.52456e-76
5.05326e-79
3.38618e-82
2.26809e-85
1.51642e-88
1.0112e-91
6.73422e-95
4.47594e-98
2.96952e-101
1.96783e-104
1.30151e-107
8.59297e-111
5.6653e-114
3.72685e-117
2.44522e-120
1.60213e-123
1.04791e-126
6.83969e-130
4.46135e-133
2.90632e-136
1.12404e-139
1.02674
1.06544
0.998448
1
1
1.00569
1.00318
4.86601e-10
1.97608e-16
1.1732e-16
1.49979e-17
1.44835e-19
8.32183e-23
1.00986e-26
4.92709e-30
3.658e-33
2.64934e-36
1.88044e-39
1.33053e-42
9.41433e-46
6.66702e-49
4.69716e-52
3.29771e-55
2.31911e-58
1.62974e-61
1.13528e-64
7.92411e-68
5.52116e-71
3.83866e-74
2.67342e-77
1.84187e-80
1.27239e-83
8.77928e-87
6.04004e-90
4.15316e-93
2.84065e-96
1.94145e-99
1.32516e-102
9.02473e-106
6.11808e-109
4.14616e-112
2.80546e-115
1.89241e-118
1.27313e-121
8.54784e-125
5.7266e-128
3.83491e-131
2.55565e-134
1.70392e-137
6.79261e-141
1.04705
0.987031
0.984988
0.997117
0.983589
0.978364
0.988451
2.12397e-12
1.51584e-14
1.58696e-15
4.07367e-18
1.69596e-21
9.24024e-25
4.21161e-28
2.76103e-31
2.05319e-34
1.50586e-37
1.08921e-40
7.83727e-44
5.62044e-47
4.01997e-50
2.86527e-53
2.03476e-56
1.44106e-59
1.01749e-62
7.15887e-66
5.02216e-69
3.51218e-72
2.44858e-75
1.7048e-78
1.18425e-81
8.20226e-85
5.66641e-88
3.90185e-91
2.67906e-94
1.8363e-97
1.25535e-100
8.55939e-104
5.82655e-107
3.95497e-110
2.6765e-113
1.80837e-116
1.2187e-119
8.1916e-123
5.4962e-126
3.67942e-129
2.4552e-132
1.63587e-135
1.08881e-138
4.29409e-142
1.04846
1.00039
1.04486
1.01641
1.02253
1.00981
0.224073
1.03502e-13
1.19073e-16
9.06577e-18
1.83012e-19
3.52928e-22
9.83498e-26
2.71468e-29
1.76346e-32
1.30587e-35
9.42741e-39
6.70963e-42
4.76277e-45
3.37418e-48
2.3862e-51
1.68304e-54
1.18426e-57
8.31532e-61
5.82911e-64
4.07283e-67
2.84067e-70
1.97734e-73
1.37242e-76
9.51247e-80
6.57664e-83
4.5324e-86
3.11799e-89
2.14008e-92
1.46555e-95
1.00156e-98
6.83173e-102
4.64895e-105
3.1564e-108
2.13912e-111
1.44597e-114
9.75152e-118
6.56434e-121
4.40702e-124
2.95488e-127
1.97625e-130
1.31883e-133
8.78949e-137
5.84659e-140
2.32586e-143
1.09705
1.10046
0.974425
1
0.966982
1.00678
5.93978e-07
5.76622e-15
1.4727e-17
9.21188e-18
8.50363e-19
8.57113e-21
5.92314e-24
6.07581e-28
2.60087e-31
1.91946e-34
1.35224e-37
9.33549e-41
6.43507e-44
4.42719e-47
3.04075e-50
2.08343e-53
1.42434e-56
9.72504e-60
6.62481e-63
4.50221e-66
3.0553e-69
2.06957e-72
1.39872e-75
9.43818e-79
6.35422e-82
4.26662e-85
2.85879e-88
1.91259e-91
1.27699e-94
8.51531e-98
5.66518e-101
3.75942e-104
2.49017e-107
1.64732e-110
1.08762e-113
7.16823e-117
4.71507e-120
3.09438e-123
2.02716e-126
1.32537e-129
8.64837e-133
5.63809e-136
3.66559e-139
1.4172e-142
0.982963
1.00356
0.969388
1.03079
0.950455
0.999671
4.93215e-09
-1.23158e-21
-1.93462e-23
4.03949e-18
2.02697e-19
3.40005e-22
1.72983e-26
2.14639e-30
8.23482e-34
3.61096e-37
1.38381e-40
5.88176e-44
2.54496e-47
1.58791e-50
4.71683e-54
2.08145e-57
9.16794e-61
2.79493e-64
2.28565e-67
3.61962e-70
7.47856e-74
1.85092e-77
4.37874e-80
6.27047e-84
9.30879e-87
1.28837e-90
2.23773e-93
7.19711e-96
3.01013e-99
1.35107e-102
1.54971e-105
7.47858e-109
3.61754e-113
1.24622e-114
4.52166e-118
1.74398e-122
3.53416e-125
3.07442e-129
1.83093e-131
1.40699e-133
3.58356e-137
1.23863e-140
1.80014e-143
2.6326e-145
1.04436
0.983027
1.09686
1.08726
1.00767
0.999958
4.19238e-07
-3.83054e-19
-2.49313e-23
6.70722e-19
4.12276e-20
1.01833e-22
1.34787e-26
1.44226e-30
4.78012e-34
1.93015e-37
8.05058e-41
3.39876e-44
1.436e-47
5.80498e-51
2.50129e-54
1.01365e-57
4.92084e-61
2.32726e-64
8.48015e-68
3.8337e-71
1.87006e-74
6.44005e-78
1.81526e-80
3.99658e-84
5.2468e-87
5.23956e-90
4.85788e-93
1.28549e-96
6.60931e-100
2.50166e-103
5.9277e-107
2.35218e-110
9.29233e-112
8.50622e-115
7.15597e-119
1.08395e-122
3.00488e-126
7.31461e-128
3.94569e-131
3.56075e-135
3.20476e-138
3.45288e-142
4.55223e-145
1.17893e-145
1.03294
1.06776
1.00211
0.899253
1.02552
1.00685
0.336001
7.59877e-12
5.7154e-15
1.01159e-16
8.09505e-20
2.05445e-21
7.95208e-24
1.52353e-27
1.14316e-31
3.80787e-35
1.56007e-38
6.4302e-42
2.64798e-45
1.08615e-48
4.45775e-52
1.82118e-55
7.48766e-59
3.04996e-62
1.25603e-65
5.04233e-69
2.08938e-72
8.22722e-76
3.32694e-79
1.9387e-82
5.74559e-86
2.21761e-89
1.27206e-92
8.69777e-96
3.61334e-99
4.3588e-102
2.09173e-105
6.03753e-109
3.92069e-112
7.04405e-115
1.12743e-117
1.32336e-121
1.76994e-125
5.76739e-128
2.81848e-130
5.41151e-134
9.56097e-137
4.22861e-140
1.17942e-143
2.7843e-145
1.0757
0.970925
0.998192
1.02784
0.998819
0.998669
1.00008
5.8086e-11
-5.62493e-18
5.03828e-17
3.06069e-18
8.51753e-21
6.61132e-24
2.43026e-27
3.42738e-31
1.05505e-34
4.33385e-38
1.8298e-41
7.69161e-45
3.23753e-48
1.35824e-51
5.65568e-55
2.43971e-58
1.13208e-61
4.34094e-65
1.89281e-68
7.16326e-72
1.38383e-74
6.79008e-78
8.5771e-82
1.39861e-84
9.77512e-88
2.93363e-91
5.47192e-95
8.112e-98
1.7363e-101
1.6021e-104
2.94339e-107
2.67072e-111
4.19447e-113
1.98889e-116
1.84495e-119
1.86424e-122
1.97308e-126
1.05802e-129
3.2341e-132
1.62641e-135
1.02905e-139
2.37107e-143
2.78821e-145
0.986779
1.03081
0.997753
1.01007
0.995537
1.00465
1.00138
8.00862e-10
-6.00423e-19
1.58487e-16
2.22401e-17
1.12556e-19
2.42808e-23
2.97575e-27
7.76711e-31
2.87829e-34
1.18854e-37
4.99647e-41
2.16887e-44
8.94343e-48
3.66972e-51
1.55622e-54
6.63388e-58
2.86862e-61
1.26446e-64
1.44788e-67
2.44859e-71
8.47831e-75
4.13079e-78
4.49534e-81
5.7668e-84
5.52754e-88
2.73072e-90
6.39737e-94
1.27427e-96
1.02264e-100
8.08741e-103
1.79052e-106
1.14129e-108
3.36204e-112
2.75717e-116
3.91005e-118
1.11498e-121
6.87736e-125
1.29763e-128
2.78778e-132
4.54121e-134
1.61277e-137
1.3319e-140
1.72101e-143
1.00424
1.0414
1.02919
0.953457
1
0.998023
1.00153
3.7815e-09
-1.17756e-18
6.12271e-17
1.74434e-17
9.67369e-20
2.14045e-23
2.63207e-27
6.76674e-31
2.51879e-34
1.0461e-37
4.43572e-41
1.88222e-44
1.1072e-47
3.64648e-51
1.93823e-54
7.56144e-58
2.54914e-61
2.14069e-64
4.50354e-68
3.0166e-71
7.86694e-75
3.0452e-78
3.82482e-80
6.88625e-83
4.34024e-86
4.73305e-90
2.57982e-93
2.77387e-97
4.77585e-100
4.22713e-103
7.08155e-106
4.853e-110
8.205e-112
3.07051e-115
1.32971e-119
2.96084e-121
9.92782e-125
2.14332e-128
1.5425e-132
5.35347e-135
1.5728e-137
1.6407e-141
3.72412e-145
1.08912
1.0419
1.00778
0.976223
0.99997
1.00795
1.00282
2.17788e-10
-1.04148e-18
4.40354e-17
2.71803e-18
8.0958e-21
7.50997e-24
2.97868e-27
4.03577e-31
1.21063e-34
4.96249e-38
2.09975e-41
8.82589e-45
3.70638e-48
1.65966e-51
6.5695e-55
2.76319e-58
1.16783e-61
5.00793e-65
2.70082e-68
8.62011e-72
3.73661e-75
8.36693e-78
1.82043e-81
3.12344e-85
1.22843e-88
4.80354e-92
4.97542e-95
1.62861e-97
5.92848e-101
6.71436e-105
3.61216e-107
1.09242e-110
9.41188e-115
2.5786e-117
3.28736e-121
3.80423e-123
1.81821e-126
6.63905e-130
5.62193e-134
1.77941e-137
8.26409e-141
3.11284e-143
1.98239e-144
1.04652
1.02318
0.973265
0.946356
1.02784
0.998492
0.98864
7.44309e-13
5.52598e-15
1.29381e-16
9.85891e-20
2.00842e-21
6.98903e-24
1.24539e-27
9.96243e-32
3.38272e-35
1.38738e-38
5.71915e-42
2.35525e-45
9.67919e-49
3.96446e-52
1.62654e-55
6.67683e-59
2.69879e-62
1.14587e-65
4.58775e-69
2.01258e-72
9.76756e-76
3.09204e-79
2.02913e-82
5.78284e-86
2.18455e-89
1.69741e-92
9.12854e-96
2.14388e-99
1.732e-102
1.1217e-105
5.66462e-109
8.07621e-112
7.21091e-114
2.47354e-117
1.99838e-120
3.09605e-124
3.69866e-128
1.66628e-131
4.97606e-135
1.89494e-138
7.46782e-142
4.43477e-145
1.88319e-145
1.02513
0.999305
0.996733
0.998728
0.97862
1.01046
0.223451
-1.7658e-19
-4.69941e-22
7.48039e-19
3.63906e-20
6.38026e-23
9.29706e-27
1.17743e-30
3.89698e-34
1.59497e-37
6.66548e-41
2.77202e-44
1.15911e-47
4.8564e-51
1.99083e-54
8.39646e-58
3.44494e-61
1.45746e-64
5.90882e-68
2.47107e-71
1.02114e-74
4.32175e-78
1.67393e-81
1.55901e-84
7.29519e-87
2.87017e-90
2.67948e-93
1.38181e-96
5.07406e-100
4.14862e-103
1.52542e-106
9.21732e-110
8.13844e-114
4.8014e-116
9.31409e-120
1.01014e-123
7.88921e-126
1.44788e-128
1.78401e-131
1.57403e-135
1.27638e-138
1.33615e-141
7.55434e-144
1.94583e-145
1.01887
1.00951
0.982509
1.04043
0.927424
1.00032
4.73186e-07
-1.30739e-21
-9.40011e-26
5.56425e-18
3.48961e-19
8.79176e-22
6.45687e-26
5.77761e-30
2.13211e-33
8.80838e-37
3.57708e-40
1.48616e-43
6.05162e-47
2.44063e-50
1.02367e-53
4.236e-57
1.64773e-60
6.78815e-64
3.75969e-67
1.57859e-70
1.64746e-73
2.58017e-77
1.77247e-80
2.01939e-83
2.04583e-87
3.66414e-89
1.34785e-92
7.14064e-97
8.88751e-100
1.97834e-102
1.01901e-105
1.30714e-109
2.37464e-111
8.23049e-115
4.85604e-118
8.84804e-121
1.96613e-124
8.03324e-128
5.12375e-132
6.29245e-134
4.82245e-137
2.1334e-140
3.42724e-144
2.36434e-145
0.0116183
0.986407
0.0259059
1.00005
0.0169432
0.986225
0.0324484
0.105351
1.00909
0.761404
0.991095
0.114824
1.00811
0.762591
0.970386
1.00126
1.00002
1.00725
0.966529
1.00122
1.00011
1.00002
1.00522
1.00123
0.999123
1
0.999376
1.00154
1.00219
1.00174
1.00241
1.00145
1.00254
1.00508
1.00226
1.00185
1.0153
1.00397
1.00114
1.00174
1.01581
1.00435
1.00319
0.968309
1.00194
1.00923
1.00592
0.976443
1.00167
1.00023
1.01938
1
0.98427
1.00017
1.02054
0.999951
0.91663
0.994222
0.306264
1.0108
0.914962
0.995676
0.312252
0.158217
1.01474
0.00173732
1.00915
0.163406
1.01601
0.00455888
0.0177403
0.990305
0.0334477
1
0.0185203
0.999845
0.0334442
0.114286
1.00827
0.762362
1.00026
0.115936
1.00848
0.762616
0.966047
1.00118
1.00031
1.00702
0.965986
1.00283
1.00015
1.00023
0.999031
1.00177
0.998337
0.999871
0.999141
1.00157
1.00293
1.01151
1.0027
1.00426
1.00263
0.997365
1.00216
1.00185
1.03394
1.00448
0.999485
1.00131
1.01459
1.00423
1.00567
0.975759
1.00206
1.00873
1.00564
0.979319
1.00168
1.00054
1.02066
0.999936
0.997415
1.00013
1.01111
0.999848
0.915
0.992668
0.314401
1.00987
0.914981
0.993617
0.312002
0.162686
1.01514
0.00510565
1.00276
0.162216
1.01189
0.00507899
0.0174279
0.999713
0.0323899
0.998289
0.0117239
1.00006
0.0262601
0.118978
1.00884
0.762953
1.00539
0.115834
1.00909
0.761507
0.966533
1.00343
1.0003
1.00626
0.97022
1.00625
1.00002
1.00004
1.00003
1.00151
1.00057
0.999911
1.00056
1.00152
1.00285
0.993874
1.00255
1.00728
1.00242
0.997173
1.00216
1.00154
0.999828
1.00447
0.999182
1.00162
0.98493
1.0044
1.0057
0.99744
1.00218
1.00573
1.0042
0.987275
1.00188
1.00063
1.01409
0.999941
0.999126
1.00017
1.01259
1
0.914973
0.991633
0.311538
1.01205
0.915522
0.997014
0.302077
0.159883
1.00739
0.00442674
0.994366
0.154809
1.00052
0.00156301
1.00013
0.980585
0.86318
0.964509
0.994583
0.99271
0.884177
1
1.00005
0.996878
1.00085
0.996893
1.00002
1.00015
-7.18016e-19
-1.59201e-18
-2.31935e-18
4.88181e-09
2.84584e-12
1.63209e-08
2.84579e-12
1.00149
1.06076
1.01824
1.01046
1.00058
1.04063
1.01998
1
1
0.985992
0.995353
0.999991
0.987921
0.999669
-1.24127e-18
0.0825729
-4.79559e-17
3.8278e-07
1.62848e-11
0.0890195
8.15893e-12
1.00923
1.01289
1.00628
1.03305
1.00724
1.01519
1.00496
1.00138
1.00518
1.00256
1.00718
1.00524
1.003
1.00131
-1.4552e-15
0.998555
-1.08884e-18
0.335789
7.08635e-09
0.992762
5.3789e-10
0.999206
1.01491
1.00012
1.00009
0.998834
1.01459
0.999166
0.956793
1
1
0.999294
1
1
0.955577
-6.69092e-15
1.00058
-1.299e-15
1.00049
4.90496e-08
1.00158
2.54258e-07
0.979279
0.926681
0.991312
0.972885
0.98549
0.962635
0.997465
1.00232
1.00435
0.989388
1.00109
1.00414
0.989787
1.00104
-1.92321e-15
1.00116
0.00136734
1.00166
6.67711e-07
1.00176
0.00399262
0.989597
1.00256
0.984283
1.00195
0.975612
0.983146
1.04334
1.00675
1.00496
0.988176
1.00145
1.00342
1.00439
1.00602
0.00277521
1.00132
-1.43475e-17
1.00175
0.00657716
1.00218
7.9481e-07
0.998052
1.00005
0.859263
1.02227
0.992729
0.996683
0.94996
1.0033
1.01691
0.988647
1.0077
1.01617
0.99606
1.00236
-3.06336e-18
1.00005
-4.7712e-17
1.00319
1.96782e-07
1.00024
5.00326e-08
0.947549
1.02402
1.01632
0.967823
0.935172
1.0096
1.02642
0.993301
0.999995
0.988137
0.977661
0.999998
0.984711
0.998846
-7.75183e-19
0.449455
-1.11123e-15
0.989001
6.24635e-10
0.451443
1.01152e-08
0.98068
0.98761
0.978523
1.00409
0.984743
0.999964
0.994354
1.00124
1.00342
1.00627
1.01204
1.00356
1.00607
1.00152
-2.76731e-16
-4.15653e-18
-6.36009e-17
0.223736
2.83265e-11
9.35039e-07
5.01142e-11
1.01258
1.02076
1.01538
0.937474
1.00554
1.02386
1.01886
1.00106
1.00194
1.01281
1.01127
1.002
1.01267
1.00008
-9.88354e-20
-8.87679e-22
-2.17475e-19
4.59105e-07
2.00288e-12
7.85513e-09
1.06519e-12
0.990175
0.958114
0.936428
0.938037
0.989508
1.01931
0.998391
0.998282
1
0.999882
1
0.99874
0.999865
1.00008
1.33966e-11
2.68231e-08
1.19675e-11
8.4575e-09
1.32347e-11
2.68264e-08
1.19675e-11
0.997406
1.02322
1.01899
1.01139
1.00085
1.02737
1.02022
1
1
0.997176
0.995865
1
1
0.995854
6.66968e-11
0.0895527
3.29434e-11
5.24161e-07
6.6706e-11
0.0895529
3.29434e-11
1.00978
1.01136
1.00696
1.02073
1.00762
1.01611
1.00294
1.00188
1.00525
1.00254
1.00719
1.00205
1.00545
1.00238
1.16484e-08
0.991819
1.02303e-09
0.336917
1.16539e-08
0.991848
1.02889e-09
1
1.0105
0.999961
0.998318
0.977453
1.01157
1
0.9759
0.996507
0.992076
0.99954
0.957959
0.992922
0.998532
7.77605e-08
1.00145
4.23484e-07
1.00037
7.74133e-08
1.00174
3.77198e-07
0.998582
0.94006
1
0.994069
1.02171
0.972807
0.887216
1.0013
1.00371
1
1.00261
1.00202
1.00314
1.00002
9.91134e-07
1.00205
0.00439433
1.00173
1.00232e-06
1.00176
0.00438902
0.956874
0.762723
1.13495
0.978232
0.869085
2.29645
1.07942
1.00058
1.00108
0.990314
1.00067
1.00191
1.00053
0.998725
0.00718168
1.00292
1.24029e-06
1.00165
0.00713784
1.00254
1.25684e-06
0.977325
0.977798
0.964226
1.14322
1.03138
1.01005
0.970504
1.00687
1.01543
0.998406
1.00673
1.00655
1.0146
0.999957
3.45147e-07
1.00042
8.01838e-08
1.00318
3.62274e-07
1.00029
7.99486e-08
0.948604
1.04538
1.03448
0.99791
0.999331
1.02079
1.00754
0.99355
0.999558
0.968405
0.988967
0.986553
0.999992
0.961513
1.27619e-09
0.451588
1.94067e-08
0.988836
1.28288e-09
0.451252
1.91324e-08
1
0.976929
0.984063
0.966144
0.985441
0.997962
0.979794
1.00263
1.00409
1.00376
1.00957
1.00278
1.00452
1.00408
1.13394e-10
1.07328e-06
2.13803e-10
0.223828
1.13394e-10
1.24589e-06
2.1377e-10
1.00133
1.01531
1.0319
0.941693
0.999401
1.02454
1.03301
1.00043
1.00151
1.00368
1.00841
1.0021
1.00137
1.0025
1.08323e-11
1.53234e-08
5.46781e-12
5.65952e-07
1.08219e-11
1.6284e-08
5.46781e-12
0.977389
0.992937
0.996561
0.974908
0.981122
0.988007
0.984698
1
1.00014
0.998881
0.999379
0.999327
0.99889
1.00033
2.86964e-12
1.64183e-08
2.86958e-12
-2.58507e-19
-6.34505e-19
-1.63734e-18
-2.19056e-18
0.998971
1.02356
1.01674
1.01068
1.00051
1.02531
1.02002
1.00019
1.00296
0.998639
1.00001
1.00006
1.00406
0.998359
1.64208e-11
0.0887703
8.23249e-12
-6.67852e-16
-1.25595e-18
0.082705
-4.63289e-17
1.00958
1.0057
1.00239
1.02556
1.00851
1.00821
1.00116
1.00193
1.0056
1.00234
1.00667
1.00222
1.00576
1.00281
7.10426e-09
0.992545
5.39035e-10
0.327266
-1.40878e-15
0.998277
-9.48448e-19
0.926217
1.0088
0.991714
1.00012
0.910044
1.01169
0.999694
0.963777
0.998861
0.912179
1.00017
0.952796
0.996729
0.883556
4.85884e-08
1.00139
2.73871e-07
1
-6.06661e-15
1.00047
-1.88595e-15
1.01318
0.962127
0.939837
1.00573
1.01104
0.948757
0.989696
0.997922
1.00225
1.00226
1.00553
0.99929
1.00213
1.00104
6.60975e-07
1.00198
0.00399319
1.00078
-1.41201e-15
1.00112
0.00136204
0.870737
1.14286
0.939913
1
0.999043
1.14218
0.882751
0.999958
1
0.97383
0.994289
1.00037
1
0.994241
0.00653808
1.00277
8.06139e-07
1.00099
0.00274359
1.00128
-2.67179e-17
1.01597
1.06521
0.996829
0.999193
0.969112
1.01651
0.996592
1.0085
1.00847
1.01108
1.00023
1.00848
1.00809
1.01396
1.94816e-07
1.00039
4.97532e-08
1.00167
-3.34322e-18
1.00002
0
1.02267
1.03658
0.997208
1.05561
1.02399
1.02904
1.00007
0.99874
1.00002
1
0.998467
0.997298
1
0.986948
6.33606e-10
0.450148
9.94813e-09
0.99421
-7.04154e-19
0.446328
-1.01303e-15
0.937466
0.987926
0.980453
0.967981
0.922043
0.987892
0.985689
1.00048
1.00427
1.00232
1.01092
1.00178
1.00432
1.00117
2.92491e-11
9.25526e-07
5.17704e-11
0.217285
-2.65611e-16
-4.92834e-18
-5.91476e-17
0.984505
1.05734
1.01788
0.97115
0.933363
1.02751
0.973768
0.999391
1.00021
0.986038
0.998866
1
1.00002
0.985858
2.25249e-12
8.81619e-09
1.19781e-12
-8.31258e-17
-1.53172e-19
-7.59604e-21
-2.24804e-19
0.442412
0.613429
0.000229986
0.0143991
0.000459867
0.441619
0.613257
1
0.993236
1
0.98632
0.993582
0.999993
1
0.635585
0.0188631
0.652429
0.0289829
0.0221341
0.652934
0.635144
1.00001
1.00006
1.00007
0.999123
0.997905
1
1.00001
0.442841
0.0155172
0.614255
0.000747633
0.000605781
0.444465
0.613468
1.00001
0.98692
0.993795
1
0.993133
1
1
0.635329
0.030554
0.025731
0.653326
0.0237963
0.652442
0.63622
0.904939
0.824242
0.228729
0.109069
0.823455
0.233971
0.90674
1.0007
1.00245
1.00247
1.00852
1.00254
1.00281
1.00094
1.00002
0.524287
1.00025
0.761668
0.524932
1.0003
1
1
0.991926
0.999996
0.998932
1
0.993534
1
0.904416
0.111321
0.82062
0.235416
0.822457
0.235368
0.906741
1.0011
1.00845
1.00281
1.00293
1.00267
1.00309
1.00079
1
0.761246
0.5257
1.00022
0.524967
1.00049
1
1.00047
1.00071
1
0.969154
1.0006
1.00002
1.00107
1.00005
0.989147
1.00018
1.00132
0.989348
1.00021
1.0006
1.00039
1.00034
1.00004
1.00008
1.00037
0.999874
1.0016
1.00181
1.0072
1.00531
1.00265
1.00514
1.00267
1.00178
1.00104
0.967666
1.00089
1.00029
1.00107
1.00075
1.0006
1.00015
1.00127
0.99413
1.00028
0.989771
1.00043
1.00018
1.00072
1.00029
1.00083
1.00001
1.00078
1.00025
1.00068
0.997236
0.997747
1.00008
1.00001
0.998399
1.00004
1
1.00327
1.00157
1.00912
1.00232
1.00128
1.00554
1.00626
1.00123
1.00018
1.00386
1.00245
1.00034
1.00354
1.00139
0.957101
0.999487
0.998159
0.990816
0.999135
0.998547
0.957378
0.994174
1.00026
0.999073
1
0.999421
1
0.990941
1.00158
1.0003
0.994701
1.00455
0.998596
1.00546
0.999802
1.00129
1.00218
1.00052
1.00318
1.00076
1.00388
1.00103
1.00372
1.00588
1.00306
1.00237
1.00508
1.00303
1.00469
1.00154
0.991948
1.00466
1.00383
0.99939
1.00469
1.00049
1.00323
1.00238
1.00377
1.0024
1.00265
1.00334
1.00355
1.00222
1.00093
1.00392
0.994108
1.00422
0.988836
1.00163
1.00394
1.00288
1.00414
1.00295
1.00473
1.00333
1.00355
1.00035
1.01103
0.989246
1.00249
0.99511
1.00374
1.00006
1.00295
1.00273
1.00265
1.00295
1.00302
1.00325
1.00286
1.00415
1.002
1.00199
1.00179
1.0021
1.00215
1.00406
1.01184
1.00785
1.01652
1.01495
1.00752
1.01595
1.01253
1.0094
1.00426
1.0086
1.00399
1.00441
1.00912
1.00935
1.00555
1.00155
1.00158
0.999244
1.00221
0.999736
1.00455
1.00426
1.00209
1.00176
1.00234
1.00205
1.00257
1.00418
1.01175
1.01692
1.00513
1.01556
1.00879
1.01599
1.01149
1.00942
1.00427
1.00438
1.00932
1.0045
1.00932
1.0093
1.00515
1.00837
1.00368
1.00239
1.00851
1.00376
1.00535
0.999906
0.952889
1
0.973981
0.967034
0.999933
1.00082
1.00369
1.00338
1.00292
1.00181
1.0033
1.00242
1.00429
1.00354
1.00826
1.01591
0.98413
1.016
0.98367
1.00602
1.00541
1.00339
1.00856
1.00397
1.008
1.00439
1.00534
0.999785
0.950618
0.978633
0.997292
0.975032
1
0.999838
1.00365
1.00219
1.00317
1.00133
1.00353
1.00239
1.00354
0.987505
0.999995
1
1.00027
1
1
0.989254
0.909315
1.00503
1.00246
1.01942
1.00491
1.00191
0.905516
0.959702
0.993911
0.994216
0.999985
0.996075
0.994349
0.979474
0.99226
0.971054
0.99917
0.993565
0.999998
0.987042
0.990859
0.992248
1.00064
0.999888
1
1
0.999879
0.984814
0.920636
1.0205
1.00224
0.99619
1.00394
0.996644
0.949273
0.950862
0.99996
0.99259
0.991949
0.993257
0.997961
0.975773
1.00011
1
0.785776
0.915615
1
0.786647
1.00025
1
0.998252
1.00002
0.994853
0.997253
1
1.00001
1
0.579463
0.975497
0.308527
0.580022
0.974715
1.00003
1.00237
1.0109
1.00402
1.00502
1.00391
1.00536
1.00267
1.0004
0.915451
1
0.785172
1
0.785202
1.00047
0.999737
0.997646
0.992387
1
0.998344
1
0.999429
1.00002
0.310177
0.580582
0.973198
0.579914
0.973915
1
0.722453
0.886134
0.0399899
0.159885
0.887288
0.0452012
0.725315
1.00123
1.00664
1.00399
1.01799
1.00876
1.00138
1.00169
0.653367
0.0237866
0.501783
0.00291561
0.0261368
0.6545
0.505477
1.00243
1.00714
1.00237
1.0073
1.00216
1.01121
1.00267
0.718831
0.161278
0.886866
0.051131
0.886292
0.0483198
0.718222
1.00101
1.01558
1.0098
1.00022
1.01112
1.00071
1.0006
0.651967
0.0037687
0.0294134
0.510136
0.027283
0.651193
0.507298
0.447553
0.614175
0.000905033
0.018459
0.447157
0.000932721
0.613468
1
0.995637
0.999997
0.987997
0.999997
0.995642
0.999998
0.635381
0.0268447
0.652932
0.0341698
0.636053
0.0276682
0.652607
0.997825
1
1.00044
0.999889
0.999851
0.998637
1.00041
0.448644