/*--------------------------------*- C++ -*----------------------------------*\
| =========                 |                                                 |
| \\      /  F ield         | OpenFOAM: The Open Source CFD Toolbox           |
|  \\    /   O peration     | Version:  5.0                                   |
|   \\  /    A nd           | Web:      www.OpenFOAM.org                      |
|    \\/     M anipulation  |                                                 |
\*---------------------------------------------------------------------------*/
FoamFile
{
    version     2.0;
    format      ascii;
    class       surfaceScalarField;
    location    "2.2";
    object      alphaPhi10;
}
// * * * * * * * * * * * * * * * * * * * * * * * * * * * * * * * * * * * * * //

dimensions      [0 3 -1 0 0 0 0];

internalField   nonuniform List<scalar> 
23800
(
-7.17293e-09
2.71965e-08
1.88642e-08
1.70598e-08
2.69421e-08
3.83446e-09
-3.17541e-09
-1.69126e-09
2.38027e-07
2.65458e-08
1.11503e-08
3.23784e-08
2.92839e-08
2.38741e-08
1.59094e-08
1.03843e-08
1.55731e-08
2.54787e-08
-3.04891e-08
-7.60154e-08
-5.9884e-08
2.38446e-08
-1.63406e-08
2.07141e-08
2.07124e-08
3.41067e-08
2.68078e-08
-1.3671e-07
1.56249e-07
4.90756e-07
1.06136e-08
-5.6432e-09
-1.30553e-09
-5.32543e-09
1.8709e-10
-9.89573e-10
8.51613e-09
-1.33279e-14
-5.48193e-19
-1.24189e-17
8.32242e-17
1.23385e-16
1.15159e-14
1.61215e-15
4.57016e-23
-3.12306e-21
3.08383e-22
1.42162e-20
-1.90106e-20
1.73619e-19
-1.80641e-19
-2.86492e-27
-4.53925e-25
-5.71029e-27
5.40621e-27
-2.82687e-27
-4.49026e-30
1.81785e-29
-1.26836e-29
3.02145e-31
8.67114e-34
-7.28177e-33
-2.85352e-33
1.12588e-37
-9.66149e-37
-1.75262e-36
4.53675e-41
-2.07895e-40
4.41791e-40
1.9266e-44
-5.11039e-44
-1.17779e-43
8.16791e-48
-1.27742e-47
1.31347e-46
3.4433e-51
-3.30501e-51
4.17796e-49
1.45136e-54
-8.86024e-55
2.85375e-52
6.08268e-58
-3.3195e-58
1.00267e-54
2.54111e-61
-4.9458e-62
-3.54961e-58
1.07047e-64
-1.20604e-65
9.53878e-62
4.48478e-68
-5.40586e-70
8.57324e-65
1.86236e-71
-3.06142e-72
-1.38356e-68
7.77503e-75
-3.61681e-76
-2.07002e-72
3.67095e-78
-5.21161e-79
1.80514e-74
2.07865e-81
-9.5973e-83
-1.0117e-76
7.53933e-85
-8.5536e-86
1.75973e-80
2.76388e-88
-8.59526e-90
-4.2229e-85
1.18109e-91
7.31715e-93
5.74959e-87
6.80614e-95
-2.59865e-96
3.0364e-90
5.4986e-98
1.21998e-98
1.056e-93
1.78903e-101
1.5373e-102
-1.4327e-96
3.3454e-104
-3.29401e-106
3.29023e-99
7.06902e-107
-2.61967e-107
2.23245e-102
1.10098e-110
1.20768e-111
2.01695e-106
7.01801e-114
2.47541e-116
5.64846e-109
8.98196e-117
3.16242e-119
2.50389e-112
1.42847e-119
1.35316e-120
-1.48907e-115
1.3932e-123
-7.29491e-125
9.12265e-120
5.93508e-127
-1.10916e-127
1.09772e-126
6.80448e-130
1.79805e-131
-4.13647e-125
8.43608e-133
-1.75264e-135
-6.24751e-129
1.21466e-135
1.84323e-136
1.10361e-131
3.57722e-138
9.21025e-139
-3.94554e-134
4.57472e-142
-3.19125e-143
-4.62206e-138
5.07335e-145
7.35524e-146
-1.05486e-140
9.04051e-149
6.92048e-150
1.79238e-145
8.35372e-152
-1.1101e-154
8.93948e-150
2.85716e-153
3.38606e-155
-4.08549e-150
7.73246e-158
-4.57605e-158
-1.07648e-08
-1.96715e-09
4.23019e-08
-2.14038e-08
1.62013e-08
3.54447e-08
-3.50898e-09
4.1476e-08
-6.14389e-09
-3.35442e-08
-6.9235e-09
1.59276e-08
2.13985e-08
3.13971e-08
-1.56013e-08
-2.88456e-08
-3.02186e-07
1.03566e-08
-8.52416e-09
3.95394e-08
-2.2111e-07
-1.83914e-07
-2.48594e-07
-2.09062e-08
-1.02435e-08
-2.29755e-08
-1.12502e-08
3.74679e-08
3.14196e-08
3.57882e-08
-7.46573e-08
-1.82528e-09
-2.55063e-09
-2.47258e-09
5.77645e-10
4.82649e-09
2.34032e-14
3.03361e-15
1.78158e-08
3.35387e-15
1.78158e-08
8.67171e-22
-1.37446e-18
-2.31568e-21
-3.14281e-19
3.63836e-20
1.64189e-19
2.11825e-18
-1.35036e-18
-1.66451e-18
-1.35101e-18
-1.78386e-26
-1.55058e-22
-3.23249e-27
7.30929e-28
-3.78658e-26
-3.53913e-29
1.31728e-30
-1.38484e-29
-1.74064e-31
4.21359e-34
-8.84076e-32
2.20021e-35
4.00112e-38
-1.91209e-34
-6.55724e-38
1.39864e-41
-1.41243e-38
5.57876e-41
6.0129e-45
-3.09068e-42
3.12664e-44
2.60919e-48
-5.15111e-46
4.97879e-47
1.12513e-51
-1.85133e-49
1.63992e-50
4.83372e-55
-7.87287e-53
5.72552e-53
2.06721e-58
-1.06302e-56
1.83914e-56
8.76437e-62
-1.39207e-60
-1.79021e-59
3.71057e-65
2.1112e-64
5.4222e-63
1.57744e-68
-9.44218e-68
9.0825e-66
6.81195e-72
-1.27527e-70
-2.05883e-68
2.88281e-75
-1.30408e-73
6.4961e-72
1.21828e-78
-7.4341e-79
-2.28444e-75
5.32535e-82
1.45268e-81
3.29125e-78
2.16201e-85
-4.09039e-85
-4.95833e-82
9.02342e-89
-4.39974e-88
2.58454e-85
3.97715e-92
1.15798e-92
-7.69338e-88
1.77667e-95
-3.32074e-95
1.38807e-91
1.15671e-98
6.63876e-100
-1.63318e-94
1.20651e-101
9.51945e-103
-3.54433e-97
2.35223e-105
-3.92269e-104
2.36638e-100
1.03641e-108
-2.32875e-107
9.3912e-103
8.32177e-112
-9.82405e-114
1.64519e-107
7.62368e-115
2.04001e-115
4.50911e-110
2.48595e-118
-2.07067e-118
1.45329e-113
5.25605e-121
1.53585e-123
-8.83378e-121
6.78136e-123
-5.79185e-125
7.3086e-120
5.38693e-127
-1.61594e-127
2.81431e-124
1.71761e-130
2.80324e-131
-1.55433e-128
1.19443e-133
5.0896e-134
1.41573e-129
2.52613e-137
-7.8662e-138
7.93854e-136
1.00374e-140
-3.0042e-142
4.21699e-139
7.35656e-144
4.96233e-144
4.64984e-138
8.41597e-147
-5.42532e-148
-2.00136e-141
3.81941e-150
5.70121e-151
-1.45862e-144
-7.97978e-154
-1.3263e-153
1.06505e-149
1.24612e-153
9.52788e-157
-5.79038e-152
1.23249e-157
-4.20949e-154
-1.27701e-08
1.16985e-09
8.31381e-09
2.40646e-08
-9.68379e-09
-1.30909e-08
-9.87828e-09
7.33576e-09
-2.19303e-08
2.33699e-07
-8.0991e-09
-1.83503e-09
-1.23963e-08
-1.1564e-09
8.99166e-08
2.03669e-07
2.00658e-07
5.89054e-08
6.62448e-08
6.34119e-08
6.55618e-08
-2.37933e-08
-2.27991e-08
-2.39846e-08
1.76288e-09
-2.46274e-09
2.77342e-09
1.01679e-08
6.77606e-09
-1.62634e-09
-1.60213e-08
-3.78064e-08
-1.34969e-08
-2.6436e-07
8.24615e-08
-1.6758e-08
4.77685e-08
-7.42437e-08
-2.10298e-09
-1.70417e-07
-3.3437e-09
-1.28344e-08
-2.94392e-09
-1.41955e-08
-1.29737e-08
-1.50838e-08
-1.60661e-08
-2.29735e-08
-1.23448e-08
-2.56947e-09
-1.82745e-07
-1.58091e-10
2.53902e-09
2.84913e-09
7.16218e-09
-9.82265e-09
-1.34494e-10
9.50324e-13
1.43933e-09
1.82106e-11
1.43505e-09
4.71545e-19
-1.35075e-18
-5.74826e-09
-1.52774e-18
4.8832e-24
-8.80483e-22
-1.81791e-23
7.40166e-20
7.406e-20
7.40363e-20
7.39286e-20
3.73908e-27
-1.57332e-25
-1.28034e-26
-5.15815e-29
-6.36029e-29
-2.67682e-30
6.80831e-32
-3.53284e-32
-1.5596e-33
4.53778e-35
9.23068e-35
5.3104e-37
3.52194e-39
-3.71314e-39
1.43981e-40
1.14912e-42
-7.95893e-44
6.6856e-45
4.93481e-46
-9.01476e-47
-6.6422e-47
2.12876e-49
-7.30708e-50
1.68288e-49
9.12176e-53
2.65377e-53
-5.6405e-52
3.88251e-56
1.12216e-56
8.56388e-57
1.64396e-59
-7.77743e-60
-4.05904e-59
6.92862e-63
-4.7455e-64
-6.20265e-62
2.90832e-66
-9.13898e-67
6.1679e-66
1.21415e-69
-2.48422e-70
-1.21646e-68
5.04839e-73
-7.95826e-74
1.65878e-71
2.092e-76
-1.4381e-77
1.86879e-74
8.6525e-80
-3.61362e-81
-6.04051e-78
3.55643e-83
3.90908e-84
-1.21683e-80
1.45856e-86
-9.34806e-88
-1.04343e-86
6.10259e-90
-1.57267e-90
3.08092e-87
2.53644e-93
-7.95453e-94
-6.79605e-92
1.00909e-96
-4.27e-97
4.53659e-96
5.33899e-100
-1.80177e-99
-3.94937e-99
6.76321e-103
7.78554e-104
-2.3855e-99
2.09242e-106
3.20657e-107
-4.67396e-102
6.90453e-110
-2.09953e-110
-8.35838e-106
2.70428e-113
-1.61312e-113
4.58522e-109
1.04124e-116
1.53051e-117
-1.30397e-112
8.01123e-120
3.23373e-121
-1.1725e-116
2.16098e-122
1.59674e-123
-6.18987e-119
5.47687e-126
4.36585e-125
1.02493e-121
1.6712e-129
1.55806e-129
-2.55454e-125
1.49963e-132
-1.73853e-133
-3.09268e-128
9.55501e-136
-1.39849e-134
-1.90847e-131
2.38402e-139
-5.25567e-138
1.08972e-135
1.65913e-142
1.97066e-142
7.91081e-137
1.63889e-145
6.45188e-145
1.25112e-140
4.05512e-148
-2.53341e-149
8.15325e-144
9.0316e-152
2.56618e-152
-2.02592e-147
1.8001e-153
1.38471e-156
1.01092e-150
-3.68308e-157
1.10504e-154
4.05568e-09
-3.88494e-09
-3.02813e-07
3.63331e-09
-7.51068e-10
7.31114e-09
-2.62938e-07
-2.23942e-07
-3.12803e-07
1.0615e-08
1.09823e-08
1.09452e-08
9.18308e-09
3.55088e-09
4.9392e-09
5.48907e-09
3.09421e-10
4.56451e-09
1.61426e-09
1.40732e-08
-3.55962e-08
1.82436e-07
-6.22504e-09
1.30028e-08
-2.24314e-09
4.76531e-09
2.47061e-08
-3.7082e-08
-2.00673e-08
-1.22402e-07
-5.77131e-08
1.63572e-07
-2.69152e-08
2.33587e-09
-1.61453e-08
3.26982e-09
-1.39314e-09
1.25517e-08
-1.48153e-10
-8.91228e-11
1.36531e-10
5.52038e-11
1.4605e-10
9.13434e-17
5.00739e-19
-1.96558e-08
-1.17792e-18
1.11519e-16
7.6658e-17
9.42041e-17
6.38891e-19
3.09913e-25
1.86572e-22
-3.56884e-22
2.69424e-19
2.66257e-19
2.63346e-19
2.76454e-19
4.40812e-26
1.40399e-25
1.087e-26
2.89442e-28
1.82029e-27
5.00383e-30
7.05509e-32
6.12094e-31
2.44737e-32
2.63063e-35
2.5763e-34
9.33316e-36
7.0679e-39
1.00156e-37
8.05335e-39
2.41858e-42
1.65937e-41
2.04835e-42
1.06539e-45
3.81844e-45
1.21131e-45
4.7916e-49
1.26249e-48
-4.30426e-48
2.13557e-52
3.94605e-52
-2.1269e-50
9.41058e-56
1.0955e-55
-3.01689e-54
4.11427e-59
3.49579e-60
1.26503e-57
1.78709e-62
3.95444e-63
2.44153e-61
7.75221e-66
-3.30334e-68
3.95232e-64
3.36731e-69
2.10552e-70
-1.42048e-66
1.44143e-72
5.90057e-73
1.26319e-69
6.15153e-76
1.22164e-76
4.536e-73
2.60239e-79
-2.07414e-79
-1.11106e-75
1.16923e-82
-6.4663e-84
5.04667e-80
5.9346e-86
3.98106e-87
-8.25484e-83
2.16514e-89
-5.81979e-89
-2.44195e-86
1.06962e-92
-5.0226e-94
3.20183e-90
1.07463e-95
5.80996e-97
-1.99859e-92
6.75944e-99
-6.1647e-100
-3.88689e-95
1.82554e-102
-1.01813e-101
-3.32626e-97
9.90627e-106
6.03053e-107
-1.08397e-101
1.04244e-108
5.26695e-111
1.37153e-105
2.29082e-112
-1.68607e-113
-2.43666e-108
1.2219e-115
-9.65301e-116
4.18137e-111
2.76051e-118
5.24961e-120
-7.58318e-115
8.44936e-121
1.86304e-121
-5.19173e-117
1.48976e-124
8.82983e-125
-2.99254e-120
7.52979e-128
-2.81413e-129
4.61144e-124
1.19812e-130
-4.44621e-132
-1.07269e-126
2.43693e-134
-1.74727e-135
4.19528e-134
2.72548e-137
-4.32932e-139
-3.58472e-134
1.94489e-140
1.53264e-141
8.67821e-137
6.63668e-144
4.33213e-145
1.33877e-139
2.68413e-147
1.28103e-146
-4.03409e-142
1.25724e-150
8.80172e-151
4.55158e-148
2.92756e-153
-1.27081e-153
-1.35999e-149
-3.85824e-156
-2.73295e-152
9.21457e-09
3.57112e-08
-9.06541e-09
-8.33854e-08
6.0541e-09
3.30149e-07
6.42724e-09
-3.0101e-08
-7.95687e-08
-2.23258e-09
-2.62268e-08
-1.83384e-08
-1.81486e-08
-1.33531e-08
-1.23897e-08
-7.69316e-09
-8.22281e-08
-3.9253e-08
-1.50437e-08
2.77728e-10
1.64927e-08
4.75554e-09
-3.02951e-08
6.20262e-09
-7.68418e-08
-2.03121e-08
1.30744e-08
6.32169e-08
-4.44698e-08
-1.6632e-09
-1.62969e-08
1.69555e-09
-7.31534e-09
2.23494e-08
-2.57018e-09
4.47888e-11
-1.14576e-10
-1.11945e-10
2.09142e-10
8.47434e-16
-7.98371e-19
-2.17123e-08
1.19317e-17
1.15181e-15
6.59998e-16
-1.95689e-16
-4.33038e-20
-2.051e-23
8.28125e-21
7.27677e-22
5.8849e-18
5.87954e-18
5.90882e-18
5.8715e-18
2.52017e-25
1.37311e-24
-8.76842e-26
3.16578e-27
4.43676e-27
7.9749e-30
9.58087e-31
7.07358e-30
6.25445e-32
6.64022e-35
1.34302e-33
8.99523e-35
2.17297e-38
2.87296e-37
-1.09501e-38
9.06277e-42
7.7399e-41
-5.54217e-40
3.93821e-45
1.92877e-44
-3.0357e-43
1.71227e-48
4.27647e-48
1.04537e-47
7.41321e-52
1.2798e-51
-6.2929e-50
3.19503e-55
3.36862e-55
-1.28879e-53
1.37065e-58
3.03145e-59
-1.2957e-55
5.87353e-62
2.69677e-62
-2.76311e-60
2.51284e-65
-2.44832e-66
4.75505e-62
1.05656e-68
1.22932e-69
-4.7963e-66
4.49902e-72
2.46231e-73
3.77186e-69
1.94203e-75
1.45465e-76
4.49532e-72
8.59464e-79
8.95067e-80
-1.48673e-74
3.71699e-82
1.31532e-83
1.94172e-78
2.01413e-85
1.2544e-86
1.08311e-81
1.55975e-88
2.44065e-89
-1.97879e-84
5.23542e-92
-1.59193e-91
-1.38248e-88
3.39275e-95
1.69762e-95
-1.31516e-91
1.62696e-98
1.63127e-99
-3.56071e-96
3.80091e-101
-1.46405e-102
-2.69662e-96
3.70544e-105
-4.45085e-106
-1.04572e-101
1.36827e-108
-6.24275e-109
2.17898e-104
1.534e-111
3.23955e-113
1.02693e-107
3.34978e-114
8.026e-115
-1.64167e-109
4.58636e-118
-3.07082e-118
-1.36501e-112
2.40019e-121
2.26039e-123
5.18092e-120
4.49251e-124
1.49189e-125
2.32029e-119
3.76549e-128
-4.52643e-128
-1.92289e-124
1.21698e-131
-1.30102e-129
1.92996e-129
6.01925e-135
-5.39796e-133
-6.25409e-133
1.32466e-137
2.7369e-137
1.472e-132
4.24631e-140
4.59143e-140
4.90816e-135
3.93709e-143
-7.84754e-144
2.34885e-139
1.78999e-145
2.07082e-146
3.81784e-141
4.49302e-149
1.97379e-149
2.00386e-145
4.04786e-152
1.31876e-152
-9.38914e-148
6.56012e-157
-9.61473e-151
-1.39263e-08
4.0439e-08
1.18161e-08
-3.67924e-08
4.139e-08
-5.38788e-08
5.19602e-08
4.36728e-08
-2.12479e-08
-3.03655e-08
1.43853e-08
-2.68322e-08
-2.30182e-08
-2.96367e-08
-2.59069e-08
9.62598e-09
2.57695e-08
1.36286e-08
2.0148e-08
1.1315e-08
-3.24863e-11
-1.40495e-08
2.79839e-07
-1.29407e-08
9.93959e-10
-2.62922e-08
6.71659e-08
7.59136e-08
-1.80926e-08
4.16703e-08
-9.33859e-09
-1.02036e-08
4.01423e-09
1.06446e-07
2.23659e-07
1.88087e-07
2.57295e-10
5.74738e-10
-3.49509e-08
-6.51618e-10
3.86735e-08
-5.45335e-09
-3.63449e-08
6.06151e-08
2.36061e-09
8.40718e-09
4.78709e-09
4.09839e-09
-1.98459e-08
-1.15409e-09
-2.73027e-12
1.10106e-10
-2.33708e-11
1.09986e-10
-1.75016e-15
3.64044e-17
-1.82663e-08
4.78476e-17
9.41631e-18
4.16466e-15
-1.24192e-14
9.36604e-15
-1.70617e-23
-6.36665e-22
-5.01198e-22
5.72149e-18
5.71993e-18
5.72341e-18
5.72348e-18
9.18483e-26
-4.99044e-26
7.09014e-26
4.57626e-27
2.83898e-27
2.12566e-29
8.83447e-31
5.05667e-30
-7.17023e-31
5.29036e-35
1.20857e-33
4.95622e-33
1.68126e-38
2.62972e-37
1.65151e-37
7.04174e-42
5.60474e-41
3.53339e-40
3.07228e-45
1.44716e-44
6.08655e-44
1.34774e-48
3.64762e-48
-5.08592e-47
5.89571e-52
1.68195e-51
-1.21624e-48
2.56066e-55
2.43975e-55
-1.50465e-52
1.11337e-58
3.62881e-59
-3.19092e-55
4.73929e-62
4.40932e-64
-9.31733e-59
2.01637e-65
6.78147e-66
-8.29461e-64
8.62309e-69
2.29583e-70
-3.42318e-65
3.68251e-72
4.29587e-73
1.63503e-68
2.24787e-75
-5.4809e-77
1.43333e-72
3.34521e-78
2.15711e-79
-1.60082e-74
4.46799e-82
-2.61979e-85
1.50745e-78
2.39385e-85
-8.15731e-88
-4.76732e-82
3.34582e-88
-9.0294e-90
-3.42711e-86
4.06408e-91
2.06195e-91
-1.03164e-86
2.83216e-94
1.77844e-94
-4.23032e-90
4.87655e-98
-1.29068e-99
-7.23543e-94
1.80707e-101
1.68632e-103
-1.92066e-97
1.14474e-104
3.67045e-107
-1.81192e-99
7.88201e-108
7.2456e-109
-3.37189e-103
2.68402e-111
-2.60902e-112
9.90831e-107
2.29108e-114
1.41619e-116
-1.43692e-109
2.08889e-117
2.09496e-118
-2.76947e-112
3.60202e-121
-1.2533e-122
-1.61424e-120
4.56076e-124
-1.63168e-125
-9.11291e-120
3.73109e-126
4.09738e-129
-4.47908e-123
6.15529e-129
-6.62846e-131
-4.41475e-125
7.83479e-133
-4.73535e-136
-1.50282e-128
2.12505e-136
2.23955e-138
4.93927e-133
9.44023e-140
-7.67167e-141
1.87113e-134
4.88947e-143
-1.89972e-145
-6.00468e-139
1.66336e-146
2.2163e-147
-5.89496e-144
5.32302e-150
1.35099e-151
2.31143e-147
-3.52369e-153
1.74664e-154
5.97085e-148
3.53864e-157
1.17064e-154
-2.43274e-08
2.22837e-08
-1.5526e-08
-1.59694e-08
2.92115e-09
-1.68602e-07
-1.54849e-08
3.03789e-08
-3.6574e-08
-5.56951e-08
-4.91865e-08
-2.50505e-08
-5.22408e-08
-1.26784e-08
-1.80486e-08
-3.13074e-08
-2.72577e-08
-2.86679e-08
-3.4704e-08
-9.13463e-08
-6.07431e-08
5.25846e-08
-8.6108e-09
8.42892e-09
2.55487e-08
-1.0569e-08
-4.58854e-08
3.86558e-08
-4.25243e-08
2.96197e-08
-9.52274e-09
2.58956e-10
1.59552e-09
-7.93844e-09
-2.0581e-09
2.12642e-08
2.38599e-09
1.04668e-09
2.96948e-09
1.55943e-08
-7.43237e-10
2.13466e-10
-1.73809e-08
-4.99957e-10
-2.89704e-10
3.96645e-10
-1.4556e-10
1.92921e-10
-2.02197e-16
-1.13347e-17
-3.4828e-08
-3.4828e-08
-4.77825e-18
-2.22477e-16
-1.2879e-15
-8.39516e-17
4.79529e-25
1.47652e-21
1.04485e-22
2.53931e-19
2.53438e-19
2.62683e-19
2.5091e-19
6.98832e-26
1.95188e-25
-4.83015e-27
1.78907e-28
9.48032e-29
1.85091e-30
6.17027e-32
3.65941e-31
-2.12692e-33
2.72654e-35
4.97576e-34
-1.55754e-35
7.89226e-39
1.20732e-37
-1.19197e-39
2.59976e-42
1.74147e-41
1.9887e-42
1.13902e-45
3.8514e-45
-6.45695e-46
5.13123e-49
1.04716e-48
2.06417e-48
2.29444e-52
2.86629e-52
3.90995e-51
1.01697e-55
1.94271e-56
5.28161e-54
4.48112e-59
2.04164e-59
-4.69335e-57
1.95959e-62
4.23379e-63
-5.47268e-60
8.46728e-66
1.22106e-66
2.53484e-64
3.65183e-69
2.8567e-70
1.59842e-67
1.57747e-72
1.15507e-73
1.08148e-70
6.80602e-76
1.12918e-76
-3.75192e-73
2.83429e-79
3.23142e-83
2.40098e-78
1.20365e-82
-8.83994e-84
-2.18984e-80
6.39307e-86
-4.99929e-87
1.18871e-83
5.00558e-89
1.72846e-89
-1.90701e-85
1.17886e-92
-1.93747e-94
-1.657e-89
5.00688e-96
-2.55348e-97
-5.68879e-92
2.40395e-99
-3.03617e-101
-9.5783e-96
9.31407e-103
-4.66314e-105
5.63746e-101
4.68837e-106
-9.60959e-108
5.64521e-102
2.26179e-109
-1.42398e-111
-8.71438e-105
1.50119e-112
4.12571e-114
5.08077e-108
1.17846e-115
-9.63748e-119
-3.38764e-111
2.74177e-118
5.68052e-120
-7.1365e-114
1.32499e-121
4.12064e-123
-7.54294e-118
1.19292e-124
-2.77216e-127
-1.39395e-120
2.27473e-128
-3.84451e-132
-4.14059e-124
1.19041e-131
2.7852e-133
1.94598e-126
4.16502e-135
-7.64352e-137
4.12119e-130
3.42189e-138
3.58704e-140
1.21931e-136
9.54783e-141
5.60632e-143
-8.30666e-137
4.74728e-144
1.62718e-147
-9.09024e-140
1.92376e-146
-1.4082e-148
-1.10842e-142
1.59718e-150
-1.71144e-153
2.30579e-150
2.88277e-153
8.2019e-155
5.1438e-151
1.55708e-156
-3.61145e-152
1.61029e-08
-4.37359e-09
-3.37242e-08
-1.20722e-08
-3.9536e-08
-3.60037e-08
-1.27067e-09
7.63475e-09
-1.84561e-08
5.39166e-10
9.88565e-09
2.91374e-08
3.25068e-08
-3.88937e-07
3.81545e-08
1.5905e-07
1.44828e-07
1.35884e-07
1.3583e-07
1.46212e-07
2.74027e-08
-3.15812e-09
6.0301e-09
3.19266e-10
-3.71915e-09
-3.18828e-08
-2.5571e-08
-2.07487e-07
3.47378e-08
-2.97647e-08
-2.89805e-08
-2.78237e-08
5.68298e-08
4.05446e-08
4.34273e-08
5.18996e-08
2.28962e-09
1.11652e-08
1.95647e-09
7.22167e-10
-1.71832e-08
-1.32753e-10
-2.48358e-10
1.60976e-09
6.39918e-11
1.47776e-09
4.72682e-16
4.23401e-18
4.58199e-09
4.58199e-09
4.32578e-18
4.72856e-16
4.73688e-16
4.72822e-16
3.65948e-24
6.1974e-23
-4.73647e-23
2.60185e-21
2.71843e-21
2.70088e-21
2.95582e-21
2.16112e-27
-8.84355e-27
-2.74339e-27
7.83344e-29
1.65356e-30
5.13391e-31
1.11202e-31
-6.64172e-34
4.22983e-34
4.33965e-35
7.0329e-35
1.30156e-37
3.30723e-39
2.8933e-39
2.48179e-40
1.05966e-42
1.37876e-42
-5.19212e-45
4.56579e-46
2.84654e-46
2.07549e-47
1.9832e-49
-3.83228e-52
1.04538e-49
8.5678e-53
-3.26776e-54
9.1488e-53
3.67812e-56
3.58038e-57
3.1274e-55
1.56986e-59
3.56749e-60
1.80998e-58
6.66488e-63
4.44961e-64
2.03995e-62
2.81644e-66
3.31277e-67
-2.73763e-65
1.18323e-69
7.45359e-71
3.92454e-68
4.94783e-73
-4.47317e-76
1.67606e-72
2.06255e-76
1.51724e-78
-1.60256e-74
8.58821e-80
7.34737e-81
-9.56268e-79
3.57097e-83
4.21047e-85
-2.81843e-81
1.45876e-86
3.73987e-88
-1.68191e-84
6.07846e-90
2.33122e-91
-1.07079e-90
2.56892e-93
3.71998e-96
-2.37025e-90
1.04771e-96
-1.06741e-98
7.30986e-96
4.79429e-100
1.48394e-101
-3.01186e-97
1.99376e-103
2.22737e-104
-7.08212e-100
7.96978e-107
-1.18685e-108
1.51916e-102
4.19392e-110
2.7156e-112
1.59395e-106
2.85809e-113
-2.61698e-116
-3.05407e-109
8.68903e-117
-5.66869e-119
2.34118e-113
7.36917e-120
1.75792e-122
3.9028e-115
3.14516e-123
2.38464e-125
-8.6168e-120
7.56067e-127
9.51262e-129
1.16779e-124
6.2743e-130
1.43472e-132
3.59809e-127
1.39524e-132
2.81275e-134
3.21341e-128
5.09961e-136
1.71064e-137
-6.57294e-132
2.69532e-139
3.49493e-141
-3.302e-135
6.2718e-143
7.9324e-145
1.80827e-138
2.40675e-146
7.95215e-148
-3.7989e-143
1.96726e-149
-5.62583e-151
-9.61901e-147
2.1184e-153
-5.82401e-153
4.67044e-150
2.52497e-153
-1.12202e-155
4.35273e-153
7.61992e-159
-2.58033e-153
-1.44883e-08
1.92677e-08
1.19595e-07
4.76423e-08
6.16445e-08
2.3589e-08
2.17311e-08
2.15239e-08
1.95612e-08
1.98392e-08
2.23384e-08
-1.48189e-08
-1.58423e-07
1.27844e-08
-4.95592e-09
-1.02202e-08
1.84877e-08
1.88787e-08
5.45756e-08
2.99612e-08
8.35532e-08
-4.83925e-08
-3.99435e-08
2.69386e-08
4.83378e-08
2.20504e-08
1.67441e-08
1.76989e-08
6.10828e-08
1.85929e-08
-3.21804e-09
-2.54052e-08
-2.06865e-08
2.22939e-08
1.32647e-08
5.54566e-08
3.52105e-08
6.94957e-09
-2.46728e-08
5.3723e-08
5.16815e-08
5.40782e-08
5.14856e-08
-8.54253e-09
-1.36356e-08
-3.33352e-09
1.3538e-09
2.3733e-08
-7.27444e-12
-9.31407e-12
-2.46862e-08
3.05099e-11
-2.46878e-08
9.29878e-22
-1.11036e-20
-7.92554e-22
2.96185e-20
4.57905e-20
-1.74138e-18
5.45563e-19
-9.4642e-19
-9.59517e-19
-1.00201e-18
-9.59433e-19
-2.0725e-26
-3.54261e-24
2.71945e-25
9.91054e-28
1.37385e-28
5.56173e-29
2.80766e-30
-2.8341e-29
3.1597e-31
2.60717e-34
-3.87126e-32
1.8641e-34
3.0422e-38
-4.14195e-36
-1.34614e-38
1.0733e-41
-8.83439e-40
2.94373e-41
4.65751e-45
-2.42076e-43
8.52764e-45
2.0503e-48
-2.7218e-47
4.92501e-47
8.98764e-52
-1.36484e-50
-4.98129e-50
3.91929e-55
-3.64597e-54
-1.23914e-53
1.69977e-58
-7.69628e-58
2.5656e-56
7.31483e-62
-1.97211e-61
9.80701e-60
3.13228e-65
-5.86363e-65
-3.37448e-63
1.33563e-68
2.95207e-68
-2.12523e-66
5.6643e-72
-7.95272e-72
-2.31752e-69
2.5237e-75
1.53828e-76
7.26821e-73
1.20231e-78
-3.28719e-80
-1.92706e-75
4.49231e-82
2.61086e-82
-3.10582e-79
1.86425e-85
2.53754e-85
3.4657e-82
7.78851e-89
-4.62659e-89
-2.93664e-85
3.23215e-92
-8.01988e-92
1.00429e-88
3.04396e-95
-3.38364e-95
-1.1566e-92
1.49879e-97
2.76426e-99
-2.37761e-94
1.30754e-101
-7.8505e-102
6.06934e-99
3.50333e-105
-2.64831e-104
-6.75147e-101
1.95806e-108
-3.30119e-108
-1.42116e-105
2.51761e-111
-7.50903e-112
4.33125e-108
6.94411e-115
-2.16187e-114
1.6549e-110
3.26264e-118
-1.68217e-117
-3.54509e-113
1.00149e-121
-1.47475e-121
4.17149e-118
7.49438e-125
4.66703e-124
1.19833e-123
2.33365e-127
1.65397e-128
-3.49658e-124
3.34816e-130
-1.28035e-131
-7.58011e-127
3.22352e-133
9.59708e-134
-3.60135e-129
5.06041e-137
2.72833e-137
1.33205e-132
1.54235e-140
-2.63653e-141
-9.73667e-139
5.92043e-144
-2.2625e-144
1.21213e-141
6.4638e-147
-3.87399e-147
-4.98618e-144
2.66447e-149
-4.03051e-150
1.15525e-145
2.74711e-152
-1.49258e-152
-1.79901e-148
3.07795e-153
-5.82657e-156
-3.25393e-151
-1.50191e-157
2.12588e-155
1.92207e-08
7.63789e-10
1.98131e-08
4.39222e-08
2.74006e-08
-4.62712e-08
-2.71994e-09
-6.87569e-08
-1.55279e-08
1.15892e-07
-9.69311e-09
-7.80095e-09
8.40235e-08
5.35378e-08
2.46646e-08
1.82832e-08
3.16005e-08
-3.53777e-08
2.84362e-08
-4.05382e-08
-1.50732e-08
-8.23097e-08
-7.42755e-08
-8.42402e-08
-7.49185e-08
8.38818e-10
-2.0442e-09
3.69253e-09
3.00923e-10
-5.27564e-09
-4.47125e-14
5.22526e-15
1.79728e-08
8.62326e-14
1.7973e-08
-1.97497e-23
-9.23937e-22
-1.35367e-19
-1.57465e-20
4.28113e-20
9.49212e-20
-5.80328e-26
-1.54789e-26
5.71433e-27
9.09402e-30
4.21005e-29
1.50909e-31
5.23398e-33
-2.70496e-33
3.65124e-37
2.22269e-36
1.31779e-40
1.76703e-39
5.57954e-44
1.63592e-43
2.36587e-47
5.02215e-46
9.98026e-51
-6.94579e-50
4.19802e-54
-3.02256e-52
1.76414e-57
-4.57201e-55
7.38695e-61
-2.16976e-59
3.06323e-64
-6.72408e-62
1.26851e-67
9.22596e-65
5.23092e-71
5.14199e-69
2.15456e-74
-6.50622e-74
8.85893e-78
7.35404e-75
3.63109e-81
-3.53505e-78
1.50106e-84
1.04434e-80
8.79838e-88
-2.33859e-84
1.30419e-90
-7.69185e-87
1.8386e-94
-3.47232e-91
1.06955e-97
-3.96955e-94
1.76047e-100
-9.87029e-97
7.21628e-104
-5.18249e-100
2.4763e-107
-8.92464e-103
8.51938e-111
3.63205e-107
1.12189e-113
7.50728e-109
1.7574e-116
-5.01286e-112
5.26844e-120
1.93363e-116
1.19462e-122
-1.23467e-118
1.07607e-126
-5.23087e-128
3.69997e-130
1.67635e-125
3.59904e-133
1.30388e-132
1.80582e-135
-2.25473e-131
2.03088e-139
4.50196e-136
2.4378e-142
-2.32023e-138
1.58252e-145
-5.8267e-142
6.90817e-149
3.02435e-145
3.02607e-152
-9.26023e-148
3.89995e-153
1.12421e-150
7.92713e-154
2.81688e-07
-1.6526e-09
-4.12195e-09
-8.87845e-08
-3.69704e-09
-8.01895e-08
1.91359e-08
1.21223e-07
4.81667e-08
2.32031e-07
3.94678e-10
1.69774e-08
1.81611e-09
-1.07019e-07
-2.22298e-08
1.00332e-07
9.44548e-08
-1.68966e-07
-1.56565e-07
-1.67212e-08
9.8485e-09
-1.69196e-07
-2.17995e-09
-2.55852e-08
-1.48435e-09
2.76996e-10
-1.44326e-09
2.82105e-08
1.35274e-14
-5.47766e-16
3.37884e-18
7.56956e-16
2.25923e-16
-2.13913e-14
2.72012e-14
-2.26045e-14
7.40236e-23
-9.75861e-21
-2.80269e-22
2.27913e-19
-2.76637e-19
2.59795e-19
-2.70752e-19
1.88611e-25
-3.75305e-24
6.6289e-27
1.27533e-26
-1.30443e-26
-8.38987e-30
3.85325e-28
-2.90872e-28
7.19658e-32
5.3362e-31
-7.39615e-31
-2.85041e-34
5.03074e-35
-1.7272e-34
-1.34597e-36
1.89295e-38
-3.42076e-38
8.2773e-40
1.45218e-41
-1.49595e-41
1.45387e-42
1.05258e-44
-2.15117e-45
4.06305e-46
7.44399e-48
-2.09257e-48
-1.3353e-49
5.24226e-51
-5.53417e-52
1.0336e-51
3.67823e-54
-1.85666e-54
-1.16054e-54
2.57254e-57
2.46929e-58
-2.07089e-58
1.79258e-60
-1.8832e-61
1.23525e-61
1.24404e-63
-6.70349e-65
1.72474e-64
8.60808e-67
2.47405e-67
1.60588e-67
5.93435e-70
6.61698e-71
-2.65809e-71
4.07743e-73
1.70683e-74
-3.51472e-75
2.79545e-76
-2.27845e-77
7.33351e-77
1.91066e-79
-1.87233e-80
2.43888e-81
1.30174e-82
-2.72554e-84
5.03078e-84
8.83903e-86
-2.17617e-87
3.19671e-87
5.98534e-89
-6.14118e-91
-2.00547e-91
4.0407e-92
2.16263e-92
6.4265e-94
2.72162e-95
1.16532e-95
1.07921e-96
1.82869e-98
-2.24361e-99
-2.5901e-99
1.22695e-101
6.37102e-103
-4.6491e-102
8.21514e-105
6.35052e-106
2.89955e-106
5.47711e-108
-3.07392e-109
1.80345e-109
3.64135e-111
3.05403e-112
-3.70469e-112
2.41773e-114
-2.96283e-116
6.7207e-116
1.60252e-117
1.59851e-118
-1.3245e-123
1.05974e-120
-1.43136e-122
9.70991e-122
6.99336e-124
6.11484e-125
1.07321e-125
4.60429e-127
-1.82233e-129
2.00828e-129
3.02654e-130
3.40855e-131
6.87043e-132
1.98438e-133
7.13982e-134
-5.14719e-140
1.29787e-136
-1.4855e-138
2.91667e-138
8.4711e-140
-1.33853e-141
1.17464e-140
5.52427e-143
-1.74853e-144
2.60516e-145
3.59411e-146
-3.6437e-148
7.76059e-148
2.2994e-149
-2.83062e-151
7.2618e-153
2.69836e-153
2.41017e-153
7.73677e-09
-4.49286e-07
-4.40831e-08
4.19669e-07
-4.68054e-08
-2.09086e-08
1.1262e-08
-1.7149e-07
-2.77587e-07
-2.50893e-07
-1.0494e-07
-9.85151e-09
-3.30006e-09
2.28032e-08
4.32429e-08
4.22177e-08
1.89103e-09
1.16563e-08
-2.15251e-07
-2.23208e-07
8.90586e-09
1.24001e-08
1.16724e-08
1.35004e-09
-4.35895e-08
-5.45746e-09
-3.21103e-08
3.00944e-08
-3.00192e-07
1.54124e-09
2.24304e-08
-1.74103e-08
-2.51826e-07
1.48887e-08
1.50224e-08
2.67984e-09
6.18157e-09
7.8346e-10
1.90879e-09
-2.63917e-08
1.08847e-13
-5.07879e-15
1.03941e-14
8.88504e-15
1.47173e-14
3.69162e-15
8.07701e-21
-5.88352e-18
2.36589e-21
-1.31072e-18
7.5143e-18
-2.01368e-18
7.32695e-18
-5.29557e-18
-5.8446e-18
-5.29566e-18
7.12738e-25
-5.13507e-22
7.56749e-26
-1.51443e-27
-6.66399e-25
3.70333e-29
2.76851e-29
-4.50332e-28
2.79729e-31
1.53376e-32
-1.1984e-31
2.341e-34
2.34192e-36
-3.91254e-35
4.12844e-37
1.43065e-39
-1.63097e-38
4.29896e-41
1.08545e-42
-6.82711e-42
8.25796e-45
7.90896e-46
-2.63442e-45
-1.75681e-46
5.67645e-49
-1.30885e-48
-8.97618e-51
4.05537e-52
-5.66942e-52
2.96177e-53
2.88583e-55
-2.54086e-55
-1.14595e-55
2.04604e-58
-1.04627e-58
1.36324e-59
1.44484e-61
-5.14746e-62
9.47244e-63
1.01596e-64
-4.71462e-66
1.99111e-65
7.12573e-68
-3.0232e-68
2.56485e-68
4.98534e-71
-2.94625e-71
1.3777e-71
3.47355e-74
1.46322e-75
3.34207e-75
2.41259e-77
1.74691e-78
-2.73059e-79
1.67069e-80
1.67317e-81
-3.10374e-81
1.15337e-83
-6.55766e-85
-6.86786e-86
7.93854e-87
3.27954e-87
2.38479e-88
5.44877e-90
-3.18602e-91
1.02218e-91
3.73331e-93
3.58841e-94
3.15703e-94
2.55249e-96
2.16755e-97
3.52673e-97
1.74142e-99
-4.28619e-100
7.25749e-100
1.18428e-102
-4.56502e-103
4.40369e-103
8.03549e-106
1.22481e-106
1.23906e-107
5.43786e-109
1.11443e-110
-4.15804e-110
3.67142e-112
1.13263e-113
-1.27003e-113
2.4743e-115
-2.63426e-117
5.49975e-117
1.66256e-118
-2.95366e-119
4.09252e-119
1.11416e-121
1.6562e-123
9.62867e-124
7.45602e-125
1.02016e-125
2.79462e-126
4.97674e-128
4.76422e-129
-3.77299e-129
3.31709e-131
-1.34452e-132
-3.42692e-135
2.20976e-134
-1.29456e-135
2.57866e-135
1.46729e-137
7.05204e-138
-3.27261e-138
9.71897e-141
-2.18953e-142
1.00725e-141
6.42875e-144
-2.11163e-144
1.35039e-144
4.24319e-147
2.13162e-148
3.3147e-149
2.79375e-150
1.38844e-151
7.09614e-152
1.03929e-154
2.46898e-157
2.21484e-09
-2.19387e-07
2.26224e-08
6.59754e-08
-2.74026e-07
3.00279e-08
1.33007e-09
2.02409e-07
1.84983e-07
3.39001e-10
2.33267e-08
1.44936e-08
2.40629e-08
1.30255e-08
1.68937e-08
1.31267e-07
6.23673e-08
1.77043e-07
1.78327e-07
-2.92111e-08
-1.86295e-08
-1.58297e-07
-1.69958e-08
-1.35637e-07
9.05218e-08
-1.94095e-07
1.69911e-07
-2.8433e-08
-2.93742e-08
-2.96067e-08
-1.61367e-08
-2.43498e-08
-2.68361e-08
1.29207e-08
2.06406e-07
1.76833e-08
5.15403e-08
-5.77594e-11
-1.77793e-08
5.89685e-09
6.6813e-09
-4.63953e-08
-1.12045e-10
-2.42269e-11
-1.42404e-11
2.6287e-11
1.13101e-11
6.01216e-13
-3.49788e-18
-5.50301e-18
8.63972e-19
-5.22016e-18
6.97574e-19
3.29253e-23
-5.22265e-21
1.30078e-22
-5.23897e-20
-5.44018e-20
-5.24324e-20
-5.45756e-20
1.47036e-25
-2.2201e-24
1.26927e-26
4.45854e-29
-8.02864e-28
1.91269e-30
1.47396e-32
-8.76332e-31
1.99357e-33
8.84647e-36
-2.72076e-34
-1.48591e-36
5.92549e-39
-1.16963e-37
3.05017e-40
4.57327e-42
-4.75858e-41
3.38107e-44
3.52489e-45
-2.1352e-44
-6.8315e-47
2.65793e-48
-1.09269e-47
1.15217e-49
1.98378e-51
-4.58314e-51
1.35343e-52
1.47066e-54
-1.22559e-54
-6.42561e-56
1.08517e-57
-1.31644e-57
3.49681e-59
7.96155e-61
-4.83206e-61
1.5531e-61
5.81097e-64
-3.84022e-64
1.24669e-65
4.21941e-67
2.68187e-67
5.96346e-68
3.04673e-70
-4.63267e-71
-3.63105e-71
2.18963e-73
1.79413e-74
1.75624e-74
1.56836e-76
-7.40256e-77
6.25847e-78
1.11824e-79
-3.42111e-81
2.15043e-80
7.93465e-83
4.46685e-83
1.55738e-86
5.618e-86
8.53771e-87
-4.09974e-88
3.96445e-89
-2.99847e-89
6.95033e-90
2.78628e-92
5.37875e-93
2.19054e-95
1.95431e-95
-3.45325e-96
5.93509e-99
1.36442e-98
3.14989e-99
6.46617e-100
9.48066e-102
-5.26133e-103
7.84246e-103
6.57364e-105
3.20835e-106
8.35974e-108
4.54581e-108
-1.47502e-108
-2.22242e-109
3.13271e-111
-1.87157e-112
5.80325e-113
2.15374e-114
5.78403e-116
1.08698e-115
1.47583e-117
1.62117e-118
1.20663e-119
1.00787e-120
1.23869e-121
-1.72784e-121
6.86429e-124
2.86718e-124
6.73202e-125
4.66425e-127
6.40087e-128
4.16659e-129
3.16529e-130
-4.31275e-130
1.59189e-133
2.14399e-133
-1.16488e-133
-3.14093e-135
1.44751e-136
7.48775e-137
2.43186e-137
9.74376e-140
3.54771e-140
-5.28701e-141
6.54344e-143
1.54449e-143
1.87731e-143
4.3818e-146
7.05321e-147
1.2236e-147
2.85987e-149
1.03765e-150
-2.20344e-150
-1.64766e-152
8.35984e-154
8.16338e-09
-2.80285e-07
-2.77324e-07
4.76551e-09
7.03465e-08
-6.73301e-09
7.19135e-08
-1.79656e-08
-3.95217e-08
-3.14429e-07
-3.42107e-08
-2.94377e-07
-6.56118e-09