/*--------------------------------*- C++ -*----------------------------------*\
| =========                 |                                                 |
| \\      /  F ield         | OpenFOAM: The Open Source CFD Toolbox           |
|  \\    /   O peration     | Version:  5.0                                   |
|   \\  /    A nd           | Web:      www.OpenFOAM.org                      |
|    \\/     M anipulation  |                                                 |
\*---------------------------------------------------------------------------*/
FoamFile
{
    version     2.0;
    format      ascii;
    class       volVectorField;
    location    "2.2";
    object      ddtCorrDdt0(U);
}
// * * * * * * * * * * * * * * * * * * * * * * * * * * * * * * * * * * * * * //

dimensions      [0 1 -2 0 0 0 0];

internalField   nonuniform List<vector> 
7975
(
(0.000319043 -0.00153957 0.000338036)
(0.00442331 -0.0012764 0.000240746)
(0.00611144 -0.00206794 -0.000820392)
(0.00449363 -0.00750068 0.00208546)
(3.00969e-05 -0.00684356 0.00166875)
(-0.0607589 0.0155466 0.00422736)
(-0.00524801 0.0109467 0.000729231)
(-0.0138722 0.00724809 0.000470354)
(-0.0178188 0.00321629 3.00959e-06)
(-0.0201986 0.00396395 1.05071e-05)
(-0.0215829 0.00267366 0.000331538)
(-0.0222701 0.00209511 0.000148978)
(-0.0182641 0.00437901 -0.000411554)
(-0.0147419 0.00169364 0.000234201)
(-0.0131575 5.68009e-05 9.0143e-06)
(-0.0110321 0.000748635 -0.000398876)
(-0.00787984 -0.000136609 1.58502e-05)
(-0.00379818 0.00163984 0.00020827)
(-0.000854011 0.00296449 0.000213591)
(-0.000306616 0.00133339 -0.000215791)
(-0.000324715 0.00176746 -7.23967e-05)
(0.00324841 0.0012837 0.000195774)
(0.00257563 -0.000943792 -2.83548e-05)
(0.00120414 -0.000666533 -0.000167122)
(0.00405069 -0.00302158 8.78425e-05)
(0.00384203 -0.00382425 0.000136356)
(0.000199525 -0.00172435 -0.000125973)
(-0.00114183 0.000558273 1.83956e-05)
(0.00212726 0.00160396 -0.000238819)
(0.00208719 0.000874158 -5.70687e-05)
(0.00105141 0.00287344 0.000154095)
(0.00524949 0.00300153 0.000112952)
(0.00473535 0.000224582 0.000122809)
(-0.00125615 -0.000933637 -0.000145889)
(-0.000891246 -0.000310845 -4.46256e-05)
(0.0082432 -5.80394e-05 -6.50923e-06)
(0.0178505 -0.0016036 -9.73199e-05)
(0.0205548 -0.0027375 2.05375e-05)
(0.0183844 -0.00165656 8.69028e-05)
(0.0185464 -0.000242793 -7.68248e-05)
(0.0252075 0.000750953 -0.000182273)
(0.0289562 0.00168138 0.000192306)
(0.022447 0.00223589 0.000286161)
(0.0187371 0.00259157 -4.78033e-05)
(0.02615 0.000566981 2.18563e-05)
(0.0306319 -0.00166012 0.000107908)
(0.0270702 -0.00191644 -9.63428e-05)
(0.0263076 -0.00128915 -7.28278e-05)
(0.0275178 -0.00100814 2.5776e-05)
(0.0245375 -0.000450412 2.19844e-06)
(-0.000789783 3.43213e-05 0.000640228)
(-0.000471995 -0.00114203 -0.000935096)
(-0.00471153 -0.0121555 0.000332702)
(-0.00860259 -0.0140188 -0.000442034)
(-0.0116285 -0.0232185 0.00349276)
(-0.0276559 -0.0180251 0.0106874)
(0.00377983 0.0148555 0.000169862)
(-0.0183342 0.0153371 -0.00011188)
(-0.0203773 0.0102086 -5.45838e-06)
(-0.0210464 0.00524289 -5.60085e-06)
(-0.023144 0.00503515 -1.99694e-06)
(-0.0207523 0.00174908 -4.97158e-08)
(-0.0180303 0.00208074 -1.54796e-07)
(-0.0188484 0.00181643 -3.90544e-06)
(-0.014162 0.00114433 1.76444e-06)
(-0.0114951 -0.000188922 -0.000243308)
(-0.0070103 0.00192536 6.96525e-06)
(-0.000485639 0.00457145 0.000291108)
(-0.00247157 0.00509312 -9.60694e-05)
(-0.00283195 0.000483492 -0.000181425)
(-0.00054634 0.00105869 0.000259533)
(0.00106812 0.000752102 0.000161198)
(0.00219889 -0.00180942 -0.000209431)
(0.00100061 -0.000409578 -0.000214056)
(0.00161339 -0.000877824 7.06625e-05)
(0.00356124 -0.0026373 -2.74427e-05)
(0.0030272 -0.00269465 -0.000156218)
(0.00225301 0.000886532 2.4361e-06)
(0.00217383 0.00219233 9.41733e-05)
(0.00233925 0.000429928 0.000169549)
(0.00244272 0.00228782 0.000423542)
(0.00233586 0.00161221 7.27329e-05)
(0.00174639 -0.00240707 -7.10534e-05)
(0.000245598 -0.00213434 -4.7107e-05)
(0.00123146 0.00151908 2.33007e-05)
(0.00727941 0.00270482 -7.67528e-05)
(0.0150405 -0.000358346 -5.35183e-05)
(0.0197023 -0.00260067 0.000119762)
(0.0200233 -0.001824 -9.4683e-05)
(0.0207378 8.50768e-05 -0.000103575)
(0.0259662 0.00178442 8.51654e-05)
(0.0287997 0.000269886 0.000211372)
(0.0234673 -0.000759006 -6.34186e-05)
(0.0190014 0.00152586 -0.000451553)
(0.0231241 0.00206663 0.000121254)
(0.0282517 -0.00136026 8.19384e-05)
(0.0281491 -0.00170481 -0.000128296)
(0.0276847 6.6496e-05 1.51294e-05)
(0.0278097 0.000599603 6.05546e-05)
(0.0246616 -0.000103521 -3.0682e-07)
(-0.00115429 -0.00529448 1.71378e-05)
(-0.010801 -0.00422322 -0.000128344)
(-0.00997502 -0.00691871 -0.00016072)
(-0.0208653 -0.00305797 -0.0020853)
(-0.0275313 -0.013618 -0.00449782)
(-0.000313203 -0.0313501 -0.0222222)
(0.072324 0.0353177 -0.0103778)
(-0.0267185 0.011315 0.000997608)
(-0.0304512 0.00760634 0.000740898)
(-0.0266624 0.00564502 -4.82884e-07)
(-0.0259552 0.00385775 -1.30606e-06)
(-0.0259595 0.00423922 -2.86315e-06)
(-0.0181818 -0.000646866 -2.5426e-06)
(-0.015913 -0.000603435 1.63533e-06)
(-0.0156651 0.00106875 -2.72378e-07)
(-0.010052 -0.000413665 -3.69933e-06)
(-0.00192829 0.00182717 7.07475e-06)
(0.000159848 0.00175388 -0.000160899)
(-0.00596976 -0.000700024 0.000340129)
(-0.00534337 0.000228053 -4.79183e-05)
(1.00834e-05 0.00137981 -0.000256451)
(-0.000339891 0.000388967 -7.01598e-06)
(0.00112768 -0.000359679 -0.000177337)
(0.00236504 -0.000284345 9.18082e-05)
(0.00126353 0.00175567 3.80756e-05)
(0.00157229 0.00065421 -0.000146736)
(0.00460795 -0.00132176 8.48787e-05)
(0.00496435 0.00138177 1.19403e-06)
(0.00155286 0.000379709 9.29616e-05)
(0.00221139 -0.000799575 0.000128455)
(0.00252713 0.000586084 -9.01977e-05)
(-0.00062299 -0.000547774 -0.000238859)
(5.72124e-05 -0.00266274 -0.000138045)
(0.00365457 -0.00195084 -2.45264e-06)
(0.00515393 0.0020157 0.000274195)
(0.00589109 0.00392369 3.81242e-05)
(0.0112193 0.000743447 -0.00011307)
(0.0187256 -0.00169143 5.75745e-05)
(0.0217423 -0.000715571 -2.70318e-05)
(0.0230561 0.00112385 -6.2892e-05)
(0.025434 0.00175008 0.00017893)
(0.0257774 -0.00153398 0.000176899)
(0.0240214 -0.00359673 -4.60628e-05)
(0.0222675 -0.00046434 -0.000120333)
(0.0225386 0.00233924 0.000161459)
(0.0259216 0.000207281 -7.09764e-05)
(0.0288567 -0.000436028 -7.67631e-05)
(0.0291866 0.00164142 0.000190162)
(0.0273043 0.0014536 5.08381e-05)
(0.0239185 -0.000402099 -1.62356e-05)
(0.000553161 -0.00441089 -0.00056119)
(-0.0024858 -0.00502989 -0.000202242)
(-0.0032237 0.00456078 6.4792e-05)
(0.00707382 0.000854202 0.00283819)
(-0.00668547 0.0328234 -0.000582208)
(-0.0144858 0.0350145 -0.00901012)
(0.0363172 0.092483 -0.00143725)
(-0.0288179 0.000158443 0.00149115)
(-0.0274478 0.000998977 1.30904e-05)
(-0.025733 0.0026207 -0.000317386)
(-0.0248996 0.000710713 -1.25508e-06)
(-0.0263901 0.00160607 -4.32001e-06)
(-0.024078 0.00110704 -2.72069e-06)
(-0.0167021 -0.000790645 1.6658e-06)
(-0.0139288 0.00143798 -1.80091e-07)
(-0.0105428 0.00199441 -7.27759e-07)
(-0.00430347 0.0016578 1.76959e-06)
(-0.00364652 -0.00191334 -0.00023227)
(-0.0043744 -0.00533898 -0.000104935)
(-0.000231311 0.000282305 -0.000187626)
(-0.000347397 0.00143809 0.0002026)
(-0.00110573 -0.000196434 5.8417e-06)
(0.00135781 0.000932557 1.94882e-05)
(0.00364665 0.000573417 0.000236724)
(0.00278275 0.00248456 -0.00027055)
(-0.000286529 0.00321747 -0.000244283)
(0.00394119 0.00136699 0.000242312)
(0.00437475 0.000552848 0.000130064)
(-0.000554063 -0.00169161 0.000124048)
(0.00259978 -0.00179228 -0.00021146)
(0.00275413 -0.000886382 -0.000133714)
(-0.00172705 -0.00153213 8.59369e-05)
(-4.67933e-06 -0.00137175 -2.62562e-05)
(0.00609746 -0.000842648 3.04788e-06)
(0.00857225 0.00105339 0.000119268)
(0.00568328 0.00313061 -7.3276e-05)
(0.00802267 0.00192846 -9.79434e-05)
(0.0178825 -3.29351e-05 6.23436e-05)
(0.0235431 0.000502194 4.9099e-05)
(0.0238183 0.00175662 4.62807e-05)
(0.0226393 0.000399133 4.63677e-05)
(0.0221175 -0.00316999 -6.3472e-05)
(0.0248096 -0.00466891 -3.02722e-05)
(0.0264192 -0.00206381 3.90062e-05)
(0.0239568 0.000656217 0.000145715)
(0.0247833 0.000616937 8.32774e-06)
(0.0299441 0.00114766 -9.19321e-05)
(0.0300439 0.00314742 6.6231e-05)
(0.0252534 0.00182398 2.90328e-06)
(0.0233504 -0.000575635 -7.01661e-05)
(-0.00193011 0.00324694 -0.000527781)
(0.000422216 -0.00148387 0.000214817)
(-0.00263544 0.000697089 0.000889268)
(-0.00530371 -0.00396861 0.00011541)
(-0.00231204 -0.0354687 0.002594)
(-0.0123533 -0.00841753 0.019871)
(-0.124188 -0.0172988 -0.0124588)
(-0.0291586 0.000355092 -0.00073321)
(-0.0273785 -0.000976376 -0.000255996)
(-0.0270271 -0.00140656 0.000304265)
(-0.0272205 -0.00145681 9.62685e-05)
(-0.0254658 -0.00325158 -0.000128632)
(-0.0211795 0.000149303 -0.000187518)
(-0.0154944 0.000213144 -8.14438e-07)
(-0.0121861 0.00207427 0.000120302)
(-0.00977859 0.00214516 7.63741e-05)
(-0.0068174 0.00270724 -7.62704e-07)
(-0.00858659 -0.000523353 -3.50355e-06)
(-0.00321432 -0.00275013 -0.000118117)
(0.00312222 -0.000867345 0.000256696)
(-0.000592056 -8.76828e-06 0.000150388)
(-0.000967961 -0.000476234 -0.000136374)
(0.00208846 0.000695014 -0.000141661)
(0.00430806 0.00172707 0.000286837)
(0.00456776 0.0016927 -0.000177317)
(0.000172138 0.00330609 0.00015651)
(0.0012778 0.00264016 0.000241639)
(0.00113828 -0.000881219 2.73227e-05)
(-0.00137708 -0.00178645 -0.000306774)
(0.00321757 -0.00139013 -0.000167039)
(0.00284836 -0.001411 0.000139554)
(-0.00123047 -0.00172978 1.81018e-05)
(0.000918316 -0.00118011 -0.000108195)
(0.00668688 0.000132059 3.16617e-06)
(0.0101207 0.000618096 6.97838e-05)
(0.00698113 0.00132363 1.46324e-06)
(0.007264 0.00250166 9.31311e-05)
(0.0169462 0.00178761 6.00109e-06)
(0.0239806 0.000769183 6.54079e-06)
(0.0229243 0.000863484 0.000243936)
(0.0192735 -0.000925452 -8.20501e-05)
(0.0194446 -0.00340415 -5.12624e-05)
(0.0254081 -0.00404764 1.09164e-05)
(0.0289231 -0.00251338 0.00019875)
(0.025886 -0.00103978 -1.90201e-05)
(0.0265364 0.000517622 2.85391e-07)
(0.0320214 0.00237073 4.77968e-05)
(0.0300286 0.00339771 5.01701e-05)
(0.0226494 0.00193523 -3.15761e-05)
(0.0223625 6.81212e-05 -5.15201e-06)
(-0.00538241 0.00237418 0.00160076)
(-0.00567856 0.001648 0.000462207)
(-0.00632062 -0.00310321 -0.000200491)
(-0.0288459 0.000115039 -0.001226)
(-0.00679373 0.00737681 -0.0121771)
(0.0101096 -0.00302715 0.00597844)
(0.0205558 0.0184264 -0.00302756)
(-0.0318658 -6.28385e-05 -0.000607196)
(-0.0296511 -0.00332922 -0.000396183)
(-0.0263336 -0.00454366 0.000341152)
(-0.0272077 -0.00181978 -0.000110417)
(-0.0243761 -0.000782598 -6.34563e-05)
(-0.0197515 0.00166359 0.000375592)
(-0.0142939 0.00191039 -2.69596e-06)
(-0.011516 0.000581289 1.03193e-05)
(-0.00975097 0.000880057 -1.22068e-05)
(-0.00764364 0.000896079 -6.19879e-07)
(-0.0104674 0.0013806 0.000168505)
(-0.00479941 -7.40004e-05 -0.000167543)
(0.00319371 -0.00224433 -2.24712e-05)
(0.000139772 -0.00185185 0.000195737)
(-0.000223972 -0.00040829 -0.000130448)
(0.0041121 0.000105786 -8.10979e-05)
(0.00489258 0.00236762 0.000133119)
(0.00475859 0.00158936 0.000149058)
(0.00089474 0.00173954 4.27968e-05)
(-0.00129576 0.00200985 -7.49411e-05)
(-0.00115536 -0.00116041 -0.000248604)
(-0.00118907 -0.000546779 -4.00441e-05)
(0.00306738 4.35098e-05 0.000191184)
(0.00232827 -0.00108053 0.000125379)
(-0.00143781 -0.0021736 -0.000436174)
(0.00232329 -0.0017557 -0.000250471)
(0.00834342 0.000928315 3.22294e-05)
(0.0100618 0.00068932 5.96125e-05)
(0.00803827 -0.000480517 -3.82207e-05)
(0.00860049 0.0019151 5.2491e-05)
(0.0157171 0.00288741 -3.67144e-06)
(0.0223899 0.000602353 -4.08689e-05)
(0.021698 -0.000747829 0.00011386)
(0.0173043 -0.00147868 -0.00010891)
(0.018217 -0.00209225 -0.000227065)
(0.0259259 -0.00178593 6.07983e-05)
(0.0301798 -0.00142749 8.55807e-05)
(0.0277467 -0.00122169 -0.000166217)
(0.0290479 0.00055009 1.5599e-06)
(0.0335437 0.00225335 0.000121859)
(0.029497 0.00205108 6.27077e-05)
(0.0210913 0.0013853 -0.000250289)
(0.0208485 0.0010281 -4.0736e-06)
(-0.00284764 -0.00157609 5.50076e-05)
(-0.00643274 0.00431366 -0.000401631)
(-0.0045345 0.00021922 -0.000818172)
(0.000460374 0.00113228 0.00111335)
(0.0100167 0.0156484 -0.00133958)
(0.00171353 -0.0179243 -0.0101843)
(-0.134307 -0.0178916 -0.00816079)
(-0.0398727 -0.00645762 -0.00112196)
(-0.0329831 -0.00387717 1.8027e-05)
(-0.0251343 -0.00509885 1.28017e-05)
(-0.0225203 -0.00338796 -1.19137e-07)
(-0.0211096 -0.0015919 -1.46073e-06)
(-0.0178157 0.000638497 -2.73519e-06)
(-0.0168492 0.000657893 2.07629e-06)
(-0.0134719 -0.00345666 -1.04885e-06)
(-0.00938536 -9.75657e-05 -2.68831e-06)
(-0.0061911 -0.00132892 -8.75069e-07)
(-0.00980137 -0.000493472 -0.000173475)
(-0.00774646 0.0021224 -5.59635e-05)
(0.000902991 -0.002155 0.000141479)
(0.00170423 -0.00261463 2.44979e-05)
(0.00147777 -0.000633598 -2.40818e-07)
(0.00556024 -0.000323299 1.76721e-07)
(0.00615902 0.00120619 6.23777e-06)
(0.00378373 0.000829521 -0.000281341)
(0.000698048 0.000482049 -7.84915e-05)
(-0.0023509 0.000778303 -4.78881e-05)
(-0.00205277 -0.00120424 0.000157909)
(0.000128013 0.000441185 9.61574e-05)
(0.00254893 0.00114474 6.92325e-05)
(7.78427e-05 -0.00141127 9.91762e-05)
(-0.0020715 -0.00181854 -8.92043e-05)
(0.00479889 -0.000222125 -4.66418e-05)
(0.00974025 0.00154031 8.79493e-05)
(0.00835897 7.65743e-05 -5.64009e-05)
(0.00851789 -0.00200053 -8.92888e-05)
(0.0114725 0.000578508 2.33565e-05)
(0.0153018 0.00292357 -1.5128e-05)
(0.0194378 0.000839606 -1.65177e-05)
(0.0203241 -0.00152824 5.43204e-05)
(0.0175932 -0.00142164 -2.48656e-05)
(0.019062 0.000332746 -0.000329547)
(0.0262395 0.00114066 0.000110525)
(0.0296287 -2.74719e-05 5.10348e-05)
(0.0283605 -0.000717188 -0.000208489)
(0.0308805 0.000468378 2.53577e-06)
(0.0338955 0.00057717 0.000315449)
(0.0289435 -0.000702591 3.51136e-05)
(0.0213718 0.000110297 -0.000265015)
(0.0193431 0.00133114 0.000105741)
(0.00199167 0.00608958 -0.000749225)
(-0.00345036 0.00523632 0.000278548)
(-0.0103 0.00455229 0.0012099)
(-0.00167263 0.00615457 0.000378914)
(-0.0176109 -0.00639604 0.0042968)
(-0.0132361 -0.0576245 0.00136492)
(0.0967311 -0.0352927 -0.038069)
(-0.0295316 -0.0146835 0.000337404)
(-0.0279438 -0.00654808 0.000400164)
(-0.0257167 -0.00217818 -9.59075e-06)
(-0.0228232 -0.00283041 -4.8027e-06)
(-0.0193419 -0.000945399 -2.59724e-06)
(-0.0169413 -0.00188822 8.77027e-07)
(-0.0194176 -0.00169157 8.37477e-08)
(-0.0124512 -0.00201764 -3.28263e-06)
(-0.00709693 -0.000323994 1.82937e-06)
(-0.00813668 -0.003794 0.000584076)
(-0.00615079 -0.00346863 -0.000206089)
(-0.00688519 0.00081656 0.00035376)
(-0.00272284 0.000273418 -3.70388e-05)
(0.00204481 -0.00194669 -5.64978e-06)
(0.00263825 -0.00132834 0.000129128)
(0.00641342 0.000282202 0.000122976)
(0.00633194 -0.000464599 -1.04776e-06)
(0.00385366 -3.48643e-05 -3.30706e-05)
(0.000831597 0.000236567 0.000107734)
(-0.00340646 -0.000343142 3.46995e-05)
(-0.00157211 -0.000730932 -0.000112631)
(0.00174681 0.000141168 -3.89823e-05)
(0.000748864 0.000697368 0.000102898)
(-0.00137226 -0.00184561 -9.19879e-05)
(5.1277e-05 -0.000413045 -0.00010063)
(0.00652212 0.0024524 5.43848e-05)
(0.00871349 0.0015378 6.93855e-06)
(0.00563542 -0.00105675 -3.02459e-05)
(0.00867145 -0.0026031 4.3798e-05)
(0.0147557 -0.000683121 3.21049e-05)
(0.0160387 0.00172694 -3.52386e-05)
(0.0168248 0.00105676 2.69717e-06)
(0.0188745 -0.00105782 1.55027e-06)
(0.0196323 -0.000869552 -0.000165554)
(0.0214187 0.00220679 7.99681e-05)
(0.0254734 0.00335289 5.9125e-05)
(0.0278583 0.000591973 1.95274e-06)
(0.0283689 -0.000674529 -6.30637e-05)
(0.0306651 0.000446108 4.82489e-06)
(0.0320792 -0.00071044 2.74894e-06)
(0.0289166 -0.00270608 -2.62693e-05)
(0.0236349 -0.00144442 1.98893e-05)
(0.0190412 0.000568696 2.33763e-05)
(-0.00392172 0.00515625 0.000792967)
(-0.00837251 0.00267488 -0.000591478)
(-0.00337083 0.00806407 -0.00190257)
(-0.0169741 0.0133908 -0.000287685)
(-0.0443221 -0.00329225 0.00492672)
(-0.0317921 0.0225169 -0.0025151)
(0.0151661 -0.0251997 0.000419659)
(-0.0075967 -0.0124418 0.000339556)
(-0.0173523 -0.00596904 0.00044141)
(-0.0204915 -0.00310357 -6.75591e-07)
(-0.0209752 -0.00168664 5.34847e-07)
(-0.0199348 -0.00149085 -8.36391e-07)
(-0.0187468 -0.00451995 -3.45386e-06)
(-0.0170114 -0.00196124 -3.9087e-06)
(-0.0117599 0.00025684 1.64839e-06)
(-0.0116126 -0.00238256 0.000485095)
(-0.0101178 -0.00306888 0.000324923)
(-0.00403341 -0.0023769 -0.0002782)
(-0.003075 -0.00163675 0.00011681)
(-0.00255312 0.0014609 0.00021487)
(-0.00029404 -0.000523876 2.16506e-06)
(0.00426558 -0.000562836 0.000121762)
(0.00663785 0.000931755 5.37772e-05)
(0.00576521 -0.00198238 9.95304e-06)
(0.0046608 -0.00125631 -0.000145365)
(0.000312454 -0.000618098 5.17588e-05)
(-0.00355899 -0.000372345 -0.000226906)
(-0.001445 0.000145412 -4.63349e-05)
(0.00191321 -0.0006384 0.000243088)
(6.18742e-05 0.000170803 0.000168734)
(-0.00130521 -0.000637249 -9.33377e-05)
(0.00330238 0.00109457 -5.81346e-05)
(0.00723283 0.0038404 0.000165953)
(0.00535196 0.00121211 8.43841e-05)
(0.00318459 -0.00239952 -0.000148648)
(0.00898895 -0.00318875 0.000137893)
(0.016886 -0.00222001 0.000112555)
(0.0174733 -0.000282254 -0.000138355)
(0.0159555 0.000763336 -8.91917e-05)
(0.0179191 -0.000216295 -1.87121e-05)
(0.0216773 -0.000153938 0.000152573)
(0.0243378 0.00292401 0.000111556)
(0.024217 0.00426783 -2.56191e-05)
(0.0245968 0.000413622 -0.000197385)
(0.0281811 -0.00114926 1.90497e-06)
(0.0308332 0.00046684 1.12742e-05)
(0.029955 -0.000595439 -8.15745e-05)
(0.0280298 -0.00304739 3.7091e-08)
(0.025466 -0.00249099 5.3872e-05)
(0.0204337 -0.000546752 1.72769e-06)
(-0.00111572 -0.00409409 -0.000588761)
(0.000181333 -0.000707499 3.46395e-05)
(0.00309465 0.00613902 0.00199992)
(0.00472369 0.00688296 0.00162797)
(-0.0445115 0.0330633 -0.00204245)
(-0.0171779 0.0919129 -0.00849147)
(0.00671195 0.00652825 0.00111531)
(-0.00734334 -0.000767731 0.000442759)
(-0.0162771 -0.00133027 2.39824e-06)
(-0.0203642 -0.00114175 -1.39249e-05)
(-0.0208085 -0.00109567 0.000258586)
(-0.0228871 -0.00162716 -0.000109184)
(-0.0175223 -0.00296316 -0.000182147)
(-0.0134472 -0.00124461 0.000103183)
(-0.0129837 -0.00114596 -2.249e-07)
(-0.0112522 -0.00236155 0.000453497)
(-0.00812738 -0.000685244 -2.00446e-06)
(-0.00436087 -0.000570082 -0.00011709)
(-0.00208511 -0.000496707 0.000218841)
(-0.00133781 0.00120512 -9.37056e-05)
(-0.000481913 0.00130176 -0.000215049)
(0.00446045 0.00118096 -2.84001e-05)
(0.00463458 0.000488872 1.73563e-05)
(0.0036021 -0.00206686 2.13571e-05)
(0.00555985 -0.00316123 0.000127059)
(0.00193733 -0.00255628 9.57257e-06)
(-0.00245046 -0.000339038 -0.000128616)
(-0.00190571 0.000451966 5.14289e-05)
(0.0017805 -9.51088e-05 0.00015913)
(0.000748675 0.00062147 -5.95568e-05)
(-0.000214612 0.0015247 -0.000156143)
(0.00564964 0.00250656 5.88204e-05)
(0.00666296 0.00308211 0.000241017)
(0.000913364 0.00051087 -0.000173715)
(0.000138231 -0.00220504 -0.000161663)
(0.00889779 -0.00275182 0.000217313)
(0.0183899 -0.0028021 8.10322e-05)
(0.0197667 -0.00198075 2.60436e-07)
(0.016905 -0.000337311 4.13512e-05)
(0.0177294 -3.60492e-05 6.70628e-06)
(0.0235616 0.000164669 2.56558e-06)
(0.0269444 0.00278557 3.89685e-05)
(0.0223302 0.00386096 6.32941e-06)
(0.0210899 0.00137346 -0.000131617)
(0.028439 -0.000826627 2.45596e-05)
(0.0313536 -0.000252872 5.40608e-05)
(0.0276841 -0.000985761 -0.000213289)
(0.0265497 -0.00255891 -2.01835e-05)
(0.0267608 -0.00236447 8.70919e-05)
(0.0228379 -0.000917644 9.67712e-07)
(0.000266184 -0.00146237 0.000663229)
(0.00440607 -0.00131846 0.00108786)
(0.00633002 -0.00220952 -0.00186037)
(0.0041909 -0.00759885 0.0029288)
(0.00169467 -0.00660317 0.00192962)
(0.0161965 0.0212781 -0.0257151)
(-0.00384298 0.0104206 -0.000458598)
(-0.0132657 0.0074162 0.000851228)
(-0.0175769 0.00337657 -7.24937e-07)
(-0.0200349 0.00406038 1.53187e-05)
(-0.0215347 0.00271194 0.000478189)
(-0.0223397 0.00209262 0.000312368)
(-0.0182447 0.00435654 -0.000640496)
(-0.0146953 0.00165518 0.00035735)
(-0.013206 3.86856e-05 1.95045e-05)
(-0.0110572 0.000699685 -0.000782003)
(-0.00788892 -0.000133662 3.24902e-05)
(-0.00382339 0.0016879 0.000322283)
(-0.000936991 0.00296097 0.00052492)
(-0.000367191 0.00133755 -0.000546253)
(-0.000312457 0.00187924 -0.000139796)
(0.00313646 0.00146528 0.000443345)
(0.00240011 -0.000795264 -9.60813e-05)
(0.00114027 -0.000570811 -0.000406717)
(0.00401145 -0.00285944 0.000187175)
(0.00372543 -0.00364494 0.000196755)
(0.000136122 -0.00161795 -0.000405038)
(-0.00110838 0.00056231 3.55324e-05)
(0.00207998 0.00155847 -0.000436013)
(0.00197454 0.000762838 -0.00010598)
(0.000951789 0.00277715 0.000325024)
(0.00507147 0.00294131 0.000218379)
(0.00460942 0.000196794 0.000155227)
(-0.00122289 -0.000884529 -0.000342293)
(-0.000837614 -0.000203585 -7.78018e-05)
(0.00823065 2.54066e-05 -1.33133e-05)
(0.0177735 -0.00156999 -0.000149656)
(0.0204366 -0.00267043 4.24992e-05)
(0.0182675 -0.00157363 0.000170524)
(0.018477 -0.000178167 -0.00015671)
(0.0251554 0.000793359 -0.000344181)
(0.028889 0.00170929 0.000333588)
(0.0224386 0.0022382 0.000461858)
(0.0186796 0.00262524 -0.000153006)
(0.0261479 0.000543167 0.000123205)
(0.0305883 -0.00174581 0.000233387)
(0.0269113 -0.00192557 -0.000253383)
(0.0262411 -0.00129326 -0.000135293)
(0.027401 -0.00100441 6.3297e-05)
(0.0243382 -0.000455688 1.0406e-05)
(-0.000949196 -2.08866e-05 0.00136589)
(-0.000465131 -0.00118674 -0.00231398)
(-0.00470088 -0.0121891 0.000157313)
(-0.00852635 -0.0143555 -0.000629334)
(-0.0111536 -0.0223571 0.00287906)
(-0.160766 -0.0171032 0.02323)
(0.00549814 0.0139879 -0.00317278)
(-0.0178184 0.0163302 -0.000670515)
(-0.0202269 0.0106963 -2.47687e-05)
(-0.021007 0.00547683 -8.84547e-06)
(-0.0231536 0.0051418 -6.90891e-06)
(-0.0207867 0.00183502 -4.01673e-06)
(-0.0180611 0.00216591 -3.44381e-06)
(-0.0188709 0.00183168 -9.92936e-06)
(-0.0142058 0.0011494 -8.28869e-07)
(-0.0115106 -0.000181353 -0.000636863)
(-0.00695716 0.00189128 1.34364e-05)
(-0.000491684 0.00447983 0.000656288)
(-0.00257647 0.00505541 -0.000251439)
(-0.00289209 0.000487618 -0.0002887)
(-0.000540939 0.00106727 0.000433506)
(0.000995814 0.000752114 0.000371995)
(0.00206766 -0.00171898 -0.000514716)
(0.000986351 -0.00027221 -0.000466926)
(0.00160065 -0.000752058 0.000140532)
(0.0034029 -0.00254998 -5.8294e-05)
(0.00284616 -0.00257945 -0.00031564)
(0.00210941 0.000881454 2.30313e-06)
(0.00203758 0.00209287 0.00023453)
(0.00225016 0.000382027 0.000308232)
(0.00242789 0.00222974 0.00057725)
(0.00230878 0.00154392 0.000183923)
(0.00170986 -0.00230389 -0.000164317)
(0.000258908 -0.00202459 -9.73763e-05)
(0.00125958 0.00158754 4.4383e-05)
(0.00722196 0.00271967 -0.000106699)
(0.0149564 -0.000334153 -8.60819e-05)
(0.0196404 -0.00254764 0.000469354)
(0.0199232 -0.00173424 -0.00016537)
(0.0206408 0.000167188 -0.000204293)
(0.0258476 0.00180932 0.000150477)
(0.0286229 0.000264033 0.000445679)
(0.0233054 -0.000777399 -0.000220732)
(0.0189543 0.00145308 -0.000953238)
(0.0230622 0.00202068 0.000333846)
(0.0281947 -0.00149824 0.000208372)
(0.0281516 -0.00170952 -0.000294948)
(0.0276442 7.89242e-05 3.5641e-05)
(0.0277243 0.000569428 0.000114351)
(0.0245407 -0.000134242 1.9711e-06)
(-0.00118883 -0.00537314 -0.000205881)
(-0.010782 -0.00414091 -0.000997168)
(-0.010121 -0.00696604 0.000913979)
(-0.0209669 -0.00271615 -0.00316158)
(-0.0257552 -0.0132469 -0.00721606)
(0.00391469 -0.0286599 0.0508933)
(0.138838 0.0419684 -0.0512537)
(-0.0253953 0.0118432 0.00187419)
(-0.031172 0.00782612 0.00185707)
(-0.0269759 0.00577223 -6.61842e-06)
(-0.0260929 0.00395146 -4.8467e-06)
(-0.0260564 0.00430533 -6.30744e-06)
(-0.0182504 -0.000604948 -6.45061e-06)
(-0.015967 -0.000577849 4.59761e-07)
(-0.0157232 0.00107855 -4.41096e-07)
(-0.0101257 -0.000399347 -7.97415e-06)
(-0.00206101 0.00180957 4.69919e-06)
(0.000130745 0.00167857 -0.000617537)
(-0.0059321 -0.000793386 0.000361082)
(-0.00534557 0.000168523 -9.19093e-05)
(1.7429e-05 0.00133142 -0.000595412)
(-0.000348792 0.000346097 -9.06154e-06)
(0.00112449 -0.000337123 -0.000311676)
(0.00234659 -0.000194042 0.000193055)
(0.00116275 0.00169257 0.000120726)
(0.00144318 0.000662948 -0.000229711)
(0.00442936 -0.00123225 0.000169707)
(0.00472906 0.00148403 2.84552e-05)
(0.00145187 0.000464563 0.000214011)
(0.00214958 -0.000698592 0.000251626)
(0.00240132 0.000673946 -0.000188478)
(-0.000599094 -0.000475177 -0.000391284)
(0.00015402 -0.00264434 -0.00029073)
(0.00364543 -0.00191271 -9.52821e-07)
(0.00508999 0.00199991 0.000437538)
(0.00582365 0.00386382 9.85209e-05)
(0.0111906 0.000741332 -0.000399367)
(0.0186901 -0.00167931 0.000172215)
(0.0216625 -0.000704915 -4.22848e-05)
(0.0229064 0.00113287 -0.000126806)
(0.0252731 0.00173908 0.000338698)
(0.0256566 -0.00150686 0.000440198)
(0.0239297 -0.00349559 -9.18222e-05)
(0.0221768 -0.000305516 -0.000449215)
(0.0224558 0.00254383 0.000218395)
(0.0259304 0.000351157 -0.000120089)
(0.0288858 -0.000386662 -0.000137347)
(0.0290885 0.00167646 0.000276093)
(0.0271334 0.00143876 0.000123176)
(0.0237951 -0.000414817 -2.98137e-05)
(0.000583872 -0.00451931 -0.00102462)
(-0.0024103 -0.00504568 -0.000325567)
(-0.00287298 0.00447883 0.000240361)
(0.00626599 0.000961162 0.00403807)
(-0.00717069 0.0315717 -0.00538871)
(-0.0130356 0.0370464 -0.0224296)
(0.0449882 0.116982 -0.0145119)
(-0.0296714 -0.00036533 0.00300194)
(-0.0277695 0.000847088 -2.08579e-06)
(-0.0258503 0.00267163 -0.000978349)
(-0.0249851 0.000750228 -4.95429e-06)
(-0.0264891 0.00163906 -9.11765e-06)
(-0.0241594 0.0010971 -9.65062e-06)
(-0.0167649 -0.000772331 -2.91206e-07)
(-0.0139867 0.00146402 -3.6738e-06)
(-0.0105926 0.00202044 -4.22074e-06)
(-0.00436231 0.0016868 4.2967e-06)
(-0.00374776 -0.00182291 -0.00051767)
(-0.00445961 -0.00534849 -7.66366e-05)
(-0.00023523 0.000293823 -0.000317755)
(-0.000320953 0.00142183 0.000341727)
(-0.00108884 -0.000237632 1.15256e-05)
(0.00139349 0.000870199 4.90511e-05)
(0.00352553 0.000537055 0.000545195)
(0.00266835 0.00238881 -0.000577554)
(-0.000254033 0.00319591 -0.000568684)
(0.00387744 0.00138352 0.000618187)
(0.00422584 0.000676588 0.000178771)
(-0.0006912 -0.0015126 0.00024844)
(0.00251496 -0.00163518 -0.000414787)
(0.00270436 -0.000687471 -0.000214948)
(-0.00183959 -0.00130686 0.000171358)
(-8.30819e-05 -0.00124321 -3.59474e-05)
(0.00606882 -0.000795172 4.57755e-06)
(0.00847831 0.00106092 0.000189582)
(0.00564345 0.00312606 -0.000150255)
(0.00802852 0.00191851 -0.000185574)
(0.0178369 -7.7782e-05 0.000168125)
(0.0234394 0.000428794 0.000104509)
(0.0236943 0.00170064 9.21319e-05)
(0.0225435 0.000393311 9.25622e-05)
(0.022081 -0.00311252 -0.000116273)
(0.0248126 -0.00458317 -5.90124e-05)
(0.0265024 -0.00196077 7.88334e-05)
(0.0238765 0.000705163 0.00032781)
(0.0245329 0.000661153 7.9126e-08)
(0.0298107 0.00112674 -0.000165496)
(0.0299232 0.00309659 0.000124755)
(0.025108 0.00180021 9.43533e-06)
(0.0232641 -0.000562032 -0.000150008)
(-0.0018664 0.00333442 -0.000816687)
(0.00047055 -0.00146381 0.000343507)
(-0.00262499 0.000578474 0.00131139)
(-0.00560258 -0.00428368 0.000191862)
(-0.00382456 -0.0364127 0.00934523)
(-0.0208247 -0.0194329 0.0631228)
(-0.302188 -0.0532536 0.00723853)
(-0.0296978 0.000243179 -0.00136074)
(-0.0273943 -0.000989746 -0.000526159)
(-0.0270998 -0.00138007 0.000848599)
(-0.0273794 -0.00146492 0.000181185)
(-0.0256239 -0.00326808 -0.000290263)
(-0.021266 0.000207572 -0.000591768)
(-0.0155033 0.000221607 -3.15672e-06)
(-0.0122346 0.00207716 0.000270842)
(-0.00984882 0.00214366 0.000202684)
(-0.00686996 0.00270152 -2.68421e-07)
(-0.00866469 -0.000524896 -1.87241e-05)
(-0.00327616 -0.00274364 -0.000268107)
(0.00311165 -0.000829452 0.000392609)
(-0.000650354 2.43503e-05 0.000338982)
(-0.00103457 -0.000491505 -0.000224991)
(0.00209139 0.000671875 -0.000217868)
(0.00424797 0.00166119 0.000452144)
(0.00448573 0.00173419 -0.000705849)
(0.000183483 0.0032379 0.000329522)
(0.00128118 0.00258446 0.000525418)
(0.00110712 -0.000891722 3.40117e-07)
(-0.00143542 -0.00170661 -0.000607055)
(0.00318222 -0.00126341 -0.000275527)
(0.00280955 -0.00132276 0.00028403)
(-0.00129363 -0.00171717 4.48373e-05)
(0.000793405 -0.00107455 -0.000215648)
(0.00652645 0.00018988 8.1879e-06)
(0.00999142 0.000663684 0.000123669)
(0.00689169 0.00133739 -1.31349e-06)
(0.00718457 0.00246619 0.000236551)
(0.0168308 0.00172495 1.26407e-05)
(0.0238863 0.000700807 -1.36267e-05)
(0.0228588 0.000812121 0.000401834)
(0.0192538 -0.000933835 -0.000142485)
(0.0194382 -0.00342265 -9.81773e-05)
(0.0253736 -0.00406595 3.03463e-05)
(0.0287864 -0.00259593 0.000348089)
(0.0257295 -0.00125911 -1.5839e-05)
(0.0264576 0.000428893 5.08163e-06)
(0.0319317 0.00232067 9.63994e-05)
(0.0299267 0.003336 0.00010114)
(0.0225591 0.00190523 -5.87664e-05)
(0.0222519 8.27808e-05 -6.7948e-06)
(-0.00545136 0.0024294 0.00225626)
(-0.0058707 0.0016191 0.00108224)
(-0.00639437 -0.00313617 -0.00018266)
(-0.0294586 0.000217874 -0.00202647)
(-0.00513804 0.00920201 -0.0166524)
(-0.00286212 0.00231368 0.0337768)
(0.0561421 0.0233058 -0.00285056)
(-0.031376 0.000618528 -0.00104742)
(-0.0297982 -0.00327314 -0.000592308)
(-0.0264426 -0.00460093 0.000520948)
(-0.0273458 -0.00186189 -0.000408787)
(-0.0243914 -0.000810315 -0.000130561)
(-0.0198009 0.00169149 0.000651886)
(-0.0144253 0.00190968 -6.33852e-06)
(-0.0115858 0.000571797 2.38038e-06)
(-0.009811 0.000875607 -3.19353e-05)
(-0.00770199 0.000899344 -1.31862e-06)
(-0.0105526 0.00135973 0.000397663)
(-0.00483494 -6.20121e-05 -0.000266603)
(0.00322373 -0.00223155 -4.32536e-05)
(0.000100026 -0.00186129 0.000329663)
(-0.000277352 -0.000379598 -0.000274327)
(0.00408492 0.000138896 -0.000278486)
(0.00485282 0.00234162 0.000257373)
(0.00464136 0.00160526 0.00033242)
(0.000806464 0.00176246 1.0024e-05)
(-0.00128721 0.00198112 -0.000132783)
(-0.00113455 -0.00120303 -0.000416909)
(-0.00115395 -0.000585898 -7.49833e-05)
(0.00299415 -1.75186e-05 0.000395821)
(0.00213656 -0.00118611 0.000299292)
(-0.00152902 -0.00226919 -0.000652739)
(0.00230104 -0.00186543 -0.000413406)
(0.0082397 0.000893822 6.99256e-05)
(0.00991241 0.000666922 0.000114495)
(0.00789666 -0.000493913 -7.24744e-05)
(0.00851059 0.00186581 9.12833e-05)
(0.0156297 0.00284823 -9.38692e-06)
(0.0222997 0.00057344 -6.83605e-05)
(0.0216489 -0.000755035 0.000214447)