/*--------------------------------*- C++ -*----------------------------------*\
| =========                 |                                                 |
| \\      /  F ield         | OpenFOAM: The Open Source CFD Toolbox           |
|  \\    /   O peration     | Version:  5.0                                   |
|   \\  /    A nd           | Web:      www.OpenFOAM.org                      |
|    \\/     M anipulation  |                                                 |
\*---------------------------------------------------------------------------*/
FoamFile
{
    version     2.0;
    format      ascii;
    class       volScalarField;
    location    "2.2";
    object      p;
}
// * * * * * * * * * * * * * * * * * * * * * * * * * * * * * * * * * * * * * //

dimensions      [1 -1 -2 0 0 0 0];

internalField   nonuniform List<scalar> 
7975
(
106.057
76.2657
105.79
89.6546
102.55
100.304
97.1672
93.2399
90.6385
88.038
85.479
82.9457
80.4362
77.9681
75.5218
73.1027
70.7003
68.3303
65.9828
63.6607
61.3458
59.05
56.783
54.5099
52.2615
50.032
47.8072
45.5805
43.3735
41.1907
39.0052
36.8446
34.7135
32.5763
30.4285
28.3106
26.2527
24.2286
22.2118
20.1897
18.1957
16.2473
14.3013
12.3268
10.3811
8.48345
6.58916
4.6884
2.80917
0.939064
99.8528
112.964
101.415
99.9632
99.1989
99.2169
97.1229
93.0629
90.5025
87.9667
85.4393
82.922
80.4436
77.9726
75.5183
73.1074
70.6984
68.3443
66.0049
63.6638
61.3497
59.0526
56.7776
54.5152
52.2525
50.0171
47.7966
45.5829
43.3813
41.1951
39.0211
36.859
34.7104
32.5649
30.4313
28.3191
26.2475
24.2122
22.1942
20.1885
18.201
16.2503
14.3087
12.346
10.3879
8.47433
6.57633
4.68554
2.80897
0.938746
100.981
96.3226
107.724
95.4965
97.6082
97.8169
97.0517
93.5226
90.2535
87.8699
85.3862
82.8817
80.406
77.9582
75.5155
73.0914
70.7089
68.3624
66.0197
63.6621
61.3508
59.0537
56.7642
54.5015
52.2525
50.0106
47.7852
45.5879
43.391
41.1957
39.0251
36.8579
34.6904
32.5538
30.4374
28.3342
26.2486
24.2032
22.1908
20.1912
18.2083
16.2485
14.2933
12.3479
10.4013
8.473
6.57305
4.68767
2.81221
0.938997
88.2189
91.1684
91.6948
99.1772
98.0563
97.727
97.4258
93.4851
90.2395
87.8756
85.376
82.9003
80.4033
77.9468
75.5139
73.0953
70.7079
68.355
65.9977
63.6649
61.3614
59.0537
56.771
54.5058
52.264
50.0206
47.7841
45.5935
43.385
41.1867
39.0254
36.8527
34.6852
32.5495
30.4472
28.3515
26.2544
24.1989
22.1915
20.1971
18.2177
16.2367
14.2763
12.3359
10.4075
8.47571
6.57329
4.69494
2.81873
0.933777
87.3067
92.1251
98.4774
101.449
99.4864
97.4276
97.2087
93.7481
90.3095
87.9011
85.3838
82.8844
80.4072
77.9454
75.5209
73.1033
70.7215
68.3474
65.978
63.6649
61.3632
59.0525
56.7763
54.5109
52.2733
50.0357
47.7942
45.5889
43.3734
41.18
39.0197
36.8459
34.6826
32.5479
30.4476
28.3608
26.2649
24.2047
22.1957
20.2069
18.2149
16.2245
14.2558
12.3246
10.4038
8.47666
6.58035
4.70868
2.82675
0.931844
98.9827
103.89
110.416
105.668
95.0434
96.7938
97.1275
93.7533
90.3406
87.9293
85.4009
82.8966
80.4179
77.958
75.5402
73.1198
70.7341
68.3533
65.9772
63.6607
61.3594
59.0506
56.7775
54.5211
52.2782
50.0495
47.8045
45.583
43.3645
41.1658
39.0085
36.8366
34.6735
32.5492
30.4514
28.3631
26.2759
24.2144
22.1989
20.2068
18.2082
16.2103
14.2423
12.3147
10.3988
8.48072
6.59615
4.73282
2.83653
0.934921
99.655
102.1
103.79
104.189
112.357
97.857
97.6557
93.7182
90.3649
87.9347
85.4256
82.9187
80.4482
77.9804
75.5411
73.1215
70.7357
68.3644
65.9816
63.6486
61.3527
59.0509
56.7751
54.5295
52.2854
50.0473
47.8102
45.5791
43.3661
41.1808
39.009
36.8261
34.6676
32.5561
30.4546
28.3575
26.2808
24.2279
22.1999
20.1981
18.2007
16.2013
14.2381
12.3119
10.3941
8.48217
6.60212
4.73276
2.84208
0.943965
102.003
118.538
101.565
98.8963
101.636
99.3576
98.1398
93.8805
90.5079
88.0142
85.4623
82.9405
80.4611
77.9871
75.5248
73.1265
70.7283
68.3518
65.9948
63.6443
61.3425
59.0467
56.7748
54.5308
52.2839
50.0519
47.8114
45.5761
43.3782
41.1868
39.005
36.8241
34.6724
32.563
30.453
28.347
26.2804
24.2387
22.2059
20.1929
18.1959
16.2135
14.2502
12.3165
10.3924
8.48418
6.60053
4.72167
2.84023
0.947831
99.6383
99.1093
101.927
99.5303
102.01
100.713
98.4828
93.4765
90.7464
88.1024
85.5175
82.9753
80.4705
77.9893
75.5377
73.1259
70.7101
68.3401
65.9904
63.6523
61.3346
59.0389
56.779
54.5263
52.2871
50.0511
47.808
45.5764
43.3715
41.1854
38.9929
36.8244
34.6914
32.5683
30.446
28.3367
26.275
24.2428
22.21
20.191
18.1939
16.2201
14.2639
12.316
10.388
8.48521
6.59326
4.7102
2.82762
0.948756
99.6831
99.4629
96.7376
148.157
102.549
101.818
97.9941
93.4285
90.7425
88.0913
85.5144
82.9622
80.4433
77.9853
75.5338
73.1111
70.7051
68.335
65.9851
63.6567
61.3362
59.0419
56.7822
54.5152
52.2746
50.0457
47.8101
45.5782
43.3694
41.1872
38.9966
36.8317
34.7075
32.5765
30.4362
28.3275
26.2675
24.2391
22.213
20.1894
18.1945
16.2361
14.2805
12.3177
10.3815
8.48769
6.59445
4.69861
2.81401
0.93932
108.128
82.1187
105.797
99.8521
101.791
100.177
97.1623
93.2405
90.6384
88.038
85.4792
82.9457
80.436
77.9681
75.5218
73.1024
70.7003
68.3303
65.9829
63.6604
61.3458
59.0501
56.783
54.5098
52.2616
50.0322
47.8071
45.5805
43.3731
41.1905
39.0051
36.8447
34.7136
32.5762
30.4284
28.3106
26.2526
24.2286
22.2117
20.1896
18.1956
16.2474
14.3014
12.3268
10.3811
8.48375
6.58906
4.68839
2.80914
0.939132
116.238
107.57
101.908
100.669
99.0563
99.0057
97.1085
93.0631
90.5024
87.9667
85.4393
82.922
80.4436
77.9725
75.5182
73.1072
70.6984
68.3444
66.0048
63.6637
61.3498
59.0526
56.7775
54.515
52.2525
50.017
47.7965
45.5829
43.3812
41.1951
39.0217
36.8591
34.7104
32.5649
30.4313
28.319
26.2474
24.2122
22.1942
20.1884
18.201
16.2504
14.3086
12.3457
10.388
8.47433
6.57625
4.68554
2.80915
0.938697
101.449
98.5174
99.4984
96.5754
97.6048
97.8176
96.955
93.5216
90.255
87.8697
85.3862
82.8817
80.406
77.9582
75.5154
73.0914
70.7088
68.3623
66.0198
63.662
61.3505
59.0537
56.764
54.5014
52.2525
50.0105
47.7853
45.5879
43.3911
41.1958
39.0248
36.8578
34.6904
32.5538
30.4375
28.3342
26.2482
24.2032
22.1908
20.1911
18.2084
16.2486
14.2932
12.3477
10.4013
8.47285
6.57304
4.68778
2.81234
0.938985
85.5787
91.7131
93.0498
102.836
97.9812
97.644
97.4299
93.4851
90.24
87.8752
85.376
82.9002
80.4033
77.9468
75.5139
73.0953
70.7079
68.3548
65.9976
63.6648
61.3615
59.0537
56.771
54.5059
52.2638
50.0205
47.7842
45.5935
43.3852
41.1865
39.0253
36.8528
34.6852
32.5495
30.4472
28.3515
26.2543
24.1989
22.1914
20.1971
18.2177
16.2366
14.2761
12.336
10.4077
8.4757
6.57321
4.69492
2.81873
0.933663
86.993
96.7829
105.291
101.476
99.1144
97.3323
97.22
93.7454
90.3098
87.901
85.3838
82.8844
80.4068
77.9453
75.521
73.1034
70.7215
68.3474
65.9778
63.6651
61.3632
59.0525
56.776
54.5111
52.2729
50.0358
47.7943
45.5888
43.3729
41.1799
39.0198
36.8459
34.6826
32.5478
30.4476
28.3608
26.2651
24.2046
22.1957
20.2069
18.2149
16.2241
14.2558
12.3246
10.4038
8.47664
6.58028
4.70906
2.8267
0.931891
101.717
127.999
109.845
105.853
92.3742
96.8621
97.1068
93.7495
90.3409
87.9293
85.4008
82.8965
80.418
77.958
75.5401
73.1197
70.7341
68.3535
65.9771
63.6607
61.3596
59.0502
56.7775
54.5211
52.2782
50.0495
47.8044
45.5829
43.3645
41.1659
39.0085
36.8362
34.6733
32.5491
30.4515
28.3631
26.2758
24.2144
22.1988
20.2068
18.2081
16.2099
14.2423
12.3147
10.3986
8.4807
6.59612
4.73305
2.83635
0.934892
99.2301
100.936
105.871
102.204
115.283
97.8624
97.6193
93.7134
90.3654
87.9345
85.4256
82.9186
80.4482
77.9804
75.5411
73.1215
70.7357
68.3642
65.9816
63.6486
61.3526
59.0508
56.7752
54.5295
52.2853
50.0472
47.8101
45.5792
43.3662
41.1807
39.0093
36.826
34.6676
32.5561
30.4546
28.3574
26.2807
24.2279
22.1999
20.1982
18.2006
16.2011
14.2381
12.3119
10.3939
8.48215
6.6022
4.73284
2.84206
0.944084
100.564
99.0375
102.437
98.1134
100.892
99.2263
98.0938
93.8773
90.5086
88.0141
85.4623
82.9405
80.4611
77.9871
75.5248
73.1265
70.7286
68.3516
65.9949
63.6443
61.3425
59.0468
56.7748
54.5308
52.2838
50.052
47.8116
45.5759
43.3781
41.1867
39.0049
36.824
34.6724
32.563
30.453
28.347
26.2804
24.2386
22.2059
20.1928
18.1958
16.2135
14.2502
12.3164
10.3923
8.48416
6.60052
4.72165
2.84018
0.947954
100.536
98.2398
102.987
98.6172
101.92
100.653
98.3504
93.4771
90.7464
88.1024
85.5175
82.9753
80.4705
77.9893
75.5377
73.1261
70.7101
68.3392
65.9905
63.6524
61.3346
59.039
56.779
54.5262
52.287
50.0511
47.8079
45.5764
43.3716
41.1855
38.993
36.8242
34.6918
32.5683
30.4459
28.3367
26.2752
24.2427
22.2099
20.1909
18.1939
16.2201
14.2638
12.3159
10.3879
8.48516
6.59322
4.71016
2.82768
0.948757
108.245
109.821
109.481
154.963
115.89
101.158
97.9855
93.4292
90.7424
88.0913
85.5145
82.9621
80.4431
77.9853
75.5338
73.1114
70.705
68.3352
65.9851
63.6565
61.3359
59.0419
56.7822
54.5151
52.2746
50.0457
47.81
45.5782
43.3695
41.1872
38.9964
36.8317
34.7077
32.5764
30.4361
28.3277
26.2676
24.239
22.213
20.1893
18.1945
16.236
14.2805
12.3175
10.3815
8.48768
6.59423
4.69861
2.81407
0.939305
104.983
55.8291
104.159
101.284
100.698
100.102
97.164
93.2403
90.6384
88.0379
85.4792
82.9458
80.4359
77.9681
75.5217
73.1021
70.7002
68.3302
65.983
63.6601
61.3456
59.0501
56.7828
54.5096
52.2615
50.0322
47.8068
45.5804
43.373
41.1905
39.0052
36.8447
34.7135
32.576
30.4283
28.3105
26.2525
24.2286
22.2117
20.1895
18.1954
16.2474
14.3014
12.3269
10.3812
8.48367
6.58893
4.68832
2.80904
0.939091
107.2
110.851
105.687
98.9426
98.7696
99.212
97.1124
93.0624
90.5024
87.9667
85.4392
82.9219
80.4435
77.9725
75.5182
73.107
70.6983
68.3445
66.0047
63.6635
61.3498
59.0531
56.7773
54.5147
52.2527
50.0169
47.7964
45.5828
43.3814
41.1955
39.0217
36.8591
34.7102
32.5649
30.4312
28.3189
26.2474
24.2126
22.194
20.1883
18.2012
16.2505
14.3085
12.3452
10.388
8.47441
6.57588
4.68548
2.80925
0.938504
98.516
98.8704
93.2653
123.652
97.4591
97.8296
96.9611
93.523
90.2548
87.8698
85.3861
82.8816
80.4059
77.9581
75.5154
73.0913
70.7087
68.362
66.0196
63.6619
61.3503
59.0536
56.764
54.5014
52.2524
50.0104
47.7852
45.5878
43.3911
41.1958
39.0247
36.8574
34.6905
32.5539
30.4375
28.3342
26.2481
24.2032
22.1907
20.191
18.2084
16.2486
14.2926
12.3475
10.4015
8.47276
6.57301
4.68775
2.81228
0.938653
86.2232
92.0158
94.6657
97.068
98.0621
97.7909
97.4278
93.4865
90.2394
87.8746
85.3759
82.9002
80.4032
77.9467
75.5138
73.0952
70.7078
68.3546
65.9976
63.6646
61.3615
59.0536
56.771
54.5059
52.2636
50.0202
47.7843
45.5934
43.3852
41.1865
39.0253
36.8528
34.6851
32.5494
30.4472
28.3515
26.2542
24.1989
22.1915
20.197
18.2176
16.2365
14.2758
12.3362
10.4077
8.47562
6.5731
4.69486
2.81859
0.933339
108.866
70.0156
101.235
102.115
99.066
97.4561
97.2149
93.7464
90.309
87.9014
85.3837
82.8836
80.4066
77.9453
75.521
73.1033
70.7214
68.3473
65.9777
63.6651
61.3633
59.0524
56.7754
54.5111
52.2726
50.0358
47.7943
45.5888
43.3727
41.1797
39.0198
36.8459
34.6824
32.5478
30.4476
28.3607
26.2654
24.2046
22.1957
20.2073
18.2149
16.2237
14.2559
12.3245
10.4034
8.47657
6.58042
4.70898
2.8266
0.931801
102.325
104.234
109.468
107.584
103.521
96.7501
97.1035
93.7514
90.34
87.9295
85.4005
82.8965
80.4183
77.9579
75.5401
73.1196
70.734
68.3535
65.977
63.6605
61.3596
59.05
56.7773
54.5211
52.2783
50.0495
47.8043
45.5827
43.3644
41.1666
39.0087
36.836
34.6731
32.5499
30.4516
28.363
26.2758
24.2144
22.1988
20.207
18.208
16.2095
14.2423
12.3147
10.3984
8.48063
6.59612
4.73303
2.83559
0.934855
99.4889
100.952
105.901
106.226
117.468
98.8719
97.6085
93.713
90.3649
87.9346
85.4255
82.9185
80.4479
77.9803
75.541
73.1214
70.7356
68.364
65.9815
63.6486
61.3527
59.0508
56.7752
54.5294
52.2851
50.0471
47.81
45.5794
43.3665
41.1807
39.0092
36.8259
34.6675
32.5561
30.4543
28.3572
26.2807
24.2278
22.1998
20.1982
18.2005
16.201
14.2381
12.3119
10.3938
8.48208
6.60223
4.7326
2.84197
0.944043
100.548
105.172
100.098
99.8048
100.781
98.805
98.1063
93.8774
90.5083
88.0141
85.4621
82.9404
80.461
77.987
75.5245
73.1264
70.7287
68.3513
65.995
63.6442
61.3424
59.0467
56.775
54.5307
52.2838
50.052
47.8115
45.5758
43.3778
41.1867
39.0049
36.8239
34.6723
32.5629
30.4529
28.3471
26.2803
24.2385
22.2058
20.1928
18.1957
16.2135
14.25
12.3164
10.3922
8.48409
6.60046
4.72161
2.84018
0.947928
99.6206
99.2037
102.587
101.128
101.275
100.621
98.3643
93.4766
90.7465
88.1024
85.5174
82.9752
80.4704
77.9892
75.5376
73.1263
70.7101
68.3391
65.9905
63.6524
61.3345
59.0393
56.7789
54.5262
52.2868
50.0511
47.8075
45.5764
43.3718
41.1856
38.9929
36.8241
34.692
32.5683
30.4457
28.3367
26.2752
24.2425
22.2098
20.1908
18.194
16.2201
14.2636
12.3157
10.3878
8.48509
6.59312
4.71009
2.82771
0.948664
101.564
106.476
103.219
89.721
101.862
100.792
97.987
93.4288
90.7424
88.0912
85.5145
82.962
80.4428
77.9852
75.5337
73.1116
70.705
68.3353
65.9851
63.6564
61.3358
59.0418
56.7821
54.5151
52.2745
50.0456
47.81
45.5782
43.3696
41.1871
38.996
36.8319
34.7081
32.5763
30.4359
28.3278
26.2675
24.239
22.213
20.1893
18.1944
16.2359
14.2804
12.3174
10.3814
8.48762
6.59406
4.69836
2.81407
0.939236
98.4796
99.6277
98.2363
100.179
98.402
99.6737
98.1234
98.4261
98.2597
97.7449
99.6112
98.3007
98.2415
97.7873
97.8749
97.6103
97.5654
97.8135
97.8809
97.629
97.5701
97.4431
97.8169
97.4177
97.6731
97.4581
97.3371
97.3456
97.2554
98.802
96.877
97.3708
97.237
98.8424
96.8622
97.04
96.3798
97.3417
96.7293
97.0213
96.0784
97.3414
97.6419
99.1813
98.0966
97.9597
97.7408
101.043
98.0963
98.4236
100.496
99.2581
99.046
98.4298
100.557
99.2888
99.5026
100.308
99.543
100.652
99.533
100.371
99.4412
99.5122
101.302
98.8882
101.189
99.4085
100.933
98.8224
98.3927
99.4396
98.1173
100.15
98.3965
99.5339
98.116
98.2789
98.2312
97.789
99.2423
98.2685
98.2383
97.7898
97.8838
97.6476
97.5698
97.8339
97.8821
97.6009
97.5779
97.4527
97.3959
97.2609
97.8511
97.4766
97.3905
97.2411
97.2531
98.7242
96.8764
97.4419
97.2252
95.1965
96.8863
97.0205
100.727
97.3611
96.7309
97.0553
96.4014
97.3468
97.6526
100.863
98.069
99.1178
97.5647
98.9582
98.0883
98.4269
100.554
99.2953
98.7094
98.4319
100.256
99.3053
99.5342
100.311
99.4534
100.605
99.5337
101.295
99.437
99.3838
100.887
98.8263
100.876
99.3785
100.773
98.8249
98.4019
99.5114
98.1235
100.031
98.4885
99.5365
98.2414
98.2886
98.2546
97.7884
100.128
98.413
98.2543
97.7459
97.8786
97.6114
97.5898
97.8471
97.8707
97.9423
97.5784
97.4549
97.3715
97.2476
97.782
97.453
97.4206
97.2413
97.2497
95.5075
96.9394
97.5556
97.2303
96.7021
96.8803
97.0527
96.1128
97.3585
96.5908
97.107
97.8148
97.3512
97.5889
98.8827
98.1425
99.2446
97.6087
98.4428
98.0916
98.4589
99.9865
99.3039
98.7406
98.429
99.9848
99.277
99.5303
101.155
99.4569
100.677
99.4976
100.211
99.6172
99.3701
100.734
98.8271
100.994
99.5099
101.303
98.8576
99.9888
98.147
103.445
101.471
99.7162
97.7223
101.162
99.6308
100.105
99.6441
100.152
99.6292
99.6123
100.113
95.5505
96.7426
95.3395
97.165
95.5596
96.7383
95.3486
98.5901
99.8264
97.7248
99.1035
98.5861
97.9161
97.742
98.4074
98.7911
99.1534
99.3622
98.7993
98.818
98.3815
95.1079
96.9157
94.9783
97.1086
95.1167
96.7733
94.9873
97.4429
97.2618
97.2651
97.8831
97.4834
97.2928
97.2222
97.6655
97.8618
97.7092
97.8125
97.8661
97.7226
97.6784
94.9028
97.4311
94.512
96.9626
94.9008
97.3709
94.5193
99.095
98.2715
96.8572
98.0008
99.0772
98.2498
96.8993
98.0235
97.6636
98.0523
97.6809
97.6678
98.0718
98.4237
94.4515
97.4041
94.6486
97.4322
94.4553
97.3931
94.6409
99.5931
103.592
98.2872
99.6909
98.9316
100.07
98.8925
97.0408
97.1583
97.0525
97.4128
97.1395
96.98
97.0921
94.6757
97.0057
95.0039
97.2311
94.6429
96.9788
94.9884
103.648
125.015
99.8007
92.4371
103.436
122.856
99.8137
97.451
97.2424
101.06
96.7878
96.9465
98.409
97.3345
94.988
97.4276
94.8714
97.1239
94.9535
97.4164
94.8435
92.272
97.6801
113.466
111.915
91.1768
97.6398
100.567
97.2786
97.9842
97.2707
97.8341
97.8689
98.4412
97.4139
94.8463
98.0981
94.9438
97.6206
94.8119
98.1052
94.9487
103.613
100.417
100.922
101.009
103.188
101.558
101.139
99.0843
98.5855
98.1969
99.259
98.5877
98.7196
99.6845
95.1321
98.6978
95.7926
98.0916
95.1404
98.5952
95.7906
100.773
100.513
101.319
100.987
100.374
101.525
102.57
100.291
100.396
100.436
100.715
100.397
100.415
100.257
95.7358
98.0626
95.6771
98.3606
95.7445
98.0521
95.6866
102.29
100.857
101.192
107.498
101.678
101.107
100.959
100.554
100.595
101.794
101.33
100.601
101.764
100.558
95.634
97.3008
95.6776
97.985
95.6431
97.2976
95.6867
99.6845
102.161
100.73
103.088
99.6682
101.648
100.609
99.6441
100.116
99.7159
100.166
99.6431
99.7116
100.119
95.5586
96.7348
95.3477
97.1619
95.5584
96.7347
95.3474
98.7631
97.8796
97.6658
98.8005
98.5485
97.582
97.7774
98.456
98.7805
99.0004
99.0593
98.4416
98.7998
99.1305
95.1155
96.7634
94.9866
97.1119
95.1147
96.7568
94.9864
97.4355
96.9858
97.3325
97.9063
97.4249
97.3501
97.2673
97.6649
97.8608
97.7198
97.8239
97.6757
97.858
97.7328
94.8992
97.3652
94.5166
96.9527
94.8989
97.3553
94.5164
99.204
98.203
96.9321
98.0798
99.192
98.1518
96.958
103.187
97.48
98.8584
97.6886
97.8327
98.5554
100.103
94.4516
97.3933
94.6469
97.4288
94.4518
97.4009
94.6254
98.8161
99.0849
99.3784
99.0665
99.735
103.929
127.373
96.9475
97.0902
96.9117
97.3234
97.0115
97.0693
96.905
94.641
97.0155
94.9859
97.2224
94.6464
96.9862
94.9859
102.81
141.226
109.723
103.004
103.553
548.456
102.537
97.2829
96.8739
98.4437
96.7757
97.2053
96.841
98.251
94.9506
97.4631
94.8409
97.1074
94.9502
97.4391
94.8449
92.2891
100.164
100.067
154.504
100.81
97.135
100.114
97.2827
97.8433
97.5624
97.8207
97.2706
97.8025
97.9773
94.8112
98.1054
94.9448
97.6172
94.8182
98.1056
94.9452
100.734
101.324
102.631
100.841
100.414
98.924
100.394
98.5931
98.6011
104.71
98.8687
100.411
98.5898
107.075
95.1385
98.579
95.7893
98.1035
95.1387
98.5653
95.7886
102.995
110.02
100.83
101.805
100.553
99.8381
101.435
100.367
100.438
100.47
100.665
100.388
100.48
100.46
95.743
98.0424
95.6856
98.351
95.7429
98.0571
95.6856
101.628
102.409
102.312
99.9606
101.554
100.812
102.522
100.57
100.594
101.375
101.294
100.571
100.597
101.368
95.6419
97.2956
95.6859
97.9801
95.6417
97.2967
95.6859
99.9811
97.1948
100.311
102.772
99.6628
97.0876
99.3716
99.63
100.129
99.686
100.056
99.6313
99.7017
100.132
95.5593
96.7383
95.3481
97.1667
95.5501
96.7428
95.3389
98.5827
97.8493
97.9974
98.883
98.6059
97.8334
97.9597
98.5096
98.7749
98.6477
99.2046
98.4966
98.8015
98.5634
95.1153
96.7654
94.9878
97.1202
95.1058
96.9028
94.9795
97.4438
97.2941
97.3055
97.4635
97.4097
97.0757
97.3835
97.6632
97.8675
97.7311
97.8239
97.6543
97.8798
97.7009
94.9005
97.3605
94.5194
97.0572
94.9028
97.4059
94.5122
99.5343
98.3636
98.0348
98.0453
101.304
98.3084
97.4704
98.1016
97.9441
100.639
97.76
99.9346
97.6736
101.584
94.4556
97.3958
94.6417
97.4217
94.4518
97.4279
94.6406
98.1079
102.187
108.358
99.9173
97.9392
102.114
108.201
97.0131
97.0939
97.0716
97.4538
96.9914
97.0973
97.2394
94.6455
97.0058
94.9886
97.2038
94.6776
97.0201
95.0033
102.872
137.963
103.017
104.403
105.645
108.551
76.8496
97.7884
96.7858
99.3369
97.301
97.6865
96.7972
102.146
94.9535
97.4607
94.8426
97.1395
94.9881
97.462
94.8695
98.1447
105.796
100.195
85.7288
103.396
101.548
100.266
97.2779
97.7844
97.3645
99.9916
97.2764
97.8043
97.702
94.8087
98.1062
94.949
97.6162
94.8391
98.0989
94.9445
100.679
100.062
100.998
103.371
100.797
100.039
100.745
98.9197
98.6239
100.364
98.7865
98.8709
98.6242
100.403
95.1407
98.5769
95.7891
98.1494
95.1321
98.679
95.7908
100.839
98.2426
101.299
102.244
102.449
98.2731
101.482
100.26
100.457
100.492
100.62
100.313
100.456
100.486
95.7441
98.0514
95.6866
98.4859
95.7353
98.0708
95.6773
101.419
106.564
101.129
97.922
106.148
103.881
105.081
100.566
100.599
101.069
100.765
100.564
100.605
101.073
95.6426
97.3
95.6867
97.9928
95.6333
97.3026
95.6777
99.9683
99.935
98.7585
98.4299
98.7761
100.019
99.9452
99.5256
99.776
99.2305
99.6247
99.7843
99.2408
99.5166
99.6683
98.4251
99.2431
98.1604
98.3501
99.2501
99.661
99.6397
100.174
100.114
99.629
99.5904
99.6434
100.114
99.9234
98.407
99.9616
98.7771
98.7798
99.8836
99.9545
99.5206
99.6396
99.7515
99.2348
99.7723
99.2381
99.517
99.6727
98.1288
98.3177
99.2523
98.3218
99.2536
99.6748
98.3069
98.7903
98.1542
98.3197
98.8062
98.0573
98.2802
98.3244
98.4698
98.0694
98.2113
98.4678
98.0481
98.3031
98.1987
98.0181
97.9861
97.7644
98.0208
97.9925
98.186
98.4212
99.3321
98.77
99.6009
98.788
98.8925
98.4297
98.3313
98.288
98.834
97.998
98.816
98.0297
98.3345
98.3173
98.2205
98.4751
98.0668
98.4709
98.0678
98.3146
98.1974
97.7784
98.0136
97.9863
98.0206
97.99
98.1957
97.9829
97.8386
97.8487
97.8777
97.853
97.8603
97.9479
97.4127
97.6286
97.6259
97.6159
97.5672
97.6269
97.4465
98.0078
97.6677
97.6078
97.5652
97.6789
97.6311
98.2752
97.6631
97.8122
97.8685
97.7198
97.8715
97.7135
97.6587
97.8296
97.8754
97.8495
97.8523
97.8594
97.8634
97.8367
97.4028
97.6202
97.4989
97.6294
97.5435
97.6567
97.4033
97.8987
97.5863
97.6699
97.5807
97.6763
97.6377
97.9088
97.431
97.4824
97.3152
97.4488
97.3595
97.3281
97.8447
97.3417
97.9239
98.0425
97.2907
97.8759
97.352
97.7852
97.2786
97.3152
97.1548
97.4256
97.2893
97.1196
97.2865
97.9925
97.7269
97.5237
99.2637
97.5942
97.8849
97.9651
97.3934
97.4955
97.3743
97.3312
97.4681
97.3353
97.4313
97.3243
97.2979
97.8952
97.3395
97.8708
97.3516
97.3062
97.2797
97.32
97.2781
97.1037
97.324
97.1694
97.2876
97.1663
97.3326
97.0818
97.2343
97.165
97.0829
97.3623
95.9434
94.8075
96.7097
98.4905
95.9719
96.7111
95.7884
96.843
96.8475
97.0644
96.8778
96.8056
96.986
96.9007
97.025
97.4274
97.107
96.8768
97.1462
97.1468
96.9782
97.172
97.2722
97.1418
97.0698
97.1542
97.1253
97.1574
95.7138
98.9176
94.1019
96.6534
94.365
96.6787
95.7813
96.8516
96.9423
96.7969
96.9801
96.8927
96.9846
96.8611
97.5579
97.0612
97.3141
97.0491
97.0759
97.2905
97.5548
98.524
98.642
96.5126
96.4262
98.6269
96.4024
98.6083
98.1149
97.4771
97.3928
97.3407
97.4722
97.3626
98.1101
97.2196
96.7768
96.8996
96.7082
96.92
96.831
97.2003
97.568
97.1348
97.0696
97.2867
97.0724
97.3081
97.5514
98.5473
96.2528
99.211
96.3395
98.7951
96.382
98.5843
98.1213
97.3339
97.4685
97.3828
97.4722
97.3803
98.126
97.5253
97.6071
97.6137
97.7776
97.6106
97.6045
97.5186
97.9731
102.283
98.5304
99.9081
99.7984
98.5208
97.9796
97.9759
98.0164
98.4035
98.0998
98.0284
98.2976
98.0646
97.2637
97.8051
97.884
98.7033
97.873
98.836
97.2437
97.5187
97.51
97.5882
97.5988
97.6288
97.6664
97.5145
97.9837
106.556
99.9163
98.3956
99.8273
98.5196
97.9827
97.979
98.1544
98.0232
98.3822
98.0594
98.2901
97.9915
98.452
98.4686
98.6032
98.4252
98.468
98.6118
98.4762
100.835
99.7245
99.7844
100.494
99.7262
99.7363
101.967
100.902
99.1183
99.4513
99.2749
99.1669
99.4535
103.731
99.1022
100.607
98.6403
100.78
98.6
98.7251
99.1356
99.4355
98.4565
98.4612
98.6072
98.4661
98.6139
99.1351
100.218
100.549
99.7285
99.6099
99.6996
99.5876
99.7193
103.481
99.2849
99.0756
100.139
99.0468
100.464
105.255
99.9234
99.9723
99.5378
99.5181
99.9772
99.561
99.9135
100.217
101.111
100.36
100.205
100.974
100.363
100.204
100.043
99.6401
100.01
99.4858
99.6459
100.024
100.034
100.276
100.647
100.429
100.398
100.418
100.381
100.337
99.9216
99.5279
99.9648
99.5691
99.975
99.5654
99.916
100.206
101.023
101.066
100.364
101.099
100.366
100.229
100.04
99.4534
99.6592
100.036
99.653
100.034
100.034
100.225
100.127
99.3063
99.4544
100.142
99.1509
100.242
100.344
101.52
100.184
101.626
101.222
100.348
100.164
99.8912
98.9438
100.351
98.8574
98.9012
99.8827
100.293
100.572
101.244
100.601
101.472
100.601
101.619
100.578
100.256
99.4222
100.151
99.1668
100.146
99.1412
100.284
100.339
100.919
101.5
100.192
101.965
100.35
100.185
99.9027
98.8262
98.8367
100.332
98.867
99.9126
100.312
99.8796
99.968
98.7578
98.3931
99.8706
98.7445
99.9691
99.5177
99.6911
99.234
99.594
99.5164
99.7028
99.2382
99.681
98.3101
99.2471
98.1201
99.6793
98.3135
99.2457
99.6447
100.155
100.127
99.6754
99.6933
99.637
100.124
99.8901
98.3989
99.9714
98.7483
98.7412
99.8823
99.9711
99.5198
99.4652
99.6245
99.2443
99.56
99.2416
99.5219
99.6827
98.1193
98.311
99.2522
98.3131
99.2478
99.683
98.3331
98.8471
97.9783
98.2643
98.3309
98.8511
97.9764
98.3454
98.4862
98.0871
98.2454
98.3317
98.4638
98.0843
98.1965
98.0103
97.9865
97.789
98.1944
98.0088
97.9887
98.4664
99.1427
98.7798
98.4911
98.7931
98.4776
98.4809
98.3343
98.2559
98.8088
97.981
98.8283
97.9825
98.3305
98.3466
98.2363
98.4744
98.0941
98.4676
98.0983
98.3707
98.1967
97.789
98.0081
97.9828
98.0089
97.9894
98.1958
97.8202
97.8484
97.8484
97.8835
97.8241
97.8428
97.8446
97.3248
97.4509
97.6299
97.6173
97.34
97.4336
97.642
97.9613
97.6643
97.5826
97.573
97.9344
97.6595
97.5824
97.6638
97.8293
97.8655
97.727
97.8612
97.739
97.6659
97.8226
97.8836
97.7943
97.8345
97.8192
97.8424
97.7957
97.4211
97.601
97.8671
97.6088
97.6127
97.6155
97.2752
98.0594
97.577
97.6486
97.6092
97.6541
97.5928
97.9414
98.7321
97.3666
97.3304
97.4254
97.6092
97.5852
97.3189
98.1711
98.4041
97.3344
97.4086
97.3338
98.4141
97.3641
97.281
97.3257
97.158
97.3221
97.2967
97.2979
97.106
97.9528
97.6639
98.2728
100.277
97.6521
100.377
98.0957
97.2185
97.4417
97.5621
97.6696
97.5116
97.2911
97.9032
97.4197
97.3661
97.7096
97.3678
97.7912
97.3724
97.8126
97.3015
97.3726
97.2968
97.0869
97.3046
97.1553
97.3186
97.1502
97.1388
97.1043
97.2295
97.1556
97.1295
97.0469
95.8495
95.8598
96.6904
106.937
95.8097
95.3241
96.7006
96.8797
96.8159
96.9761
96.8501
96.8704
96.7881
96.987
96.9567
97.3798
97.0803
97.0574
97.0695
97.0134
96.9752
97.1512
97.2699
97.1248
97.0458
97.1279
97.0598
97.1498
95.8758
94.9381
100.716
96.658
97.1471
96.6598
95.8929
96.906
96.838
96.7951
96.987
96.8211
96.9819
96.9173
97.5199
97.0757
97.32
97.0246
97.529
97.0801
97.2843
98.6194
99.3481
96.4994
100.702
98.6082
99.1647
96.4418
98.1415
97.4661
97.3928
97.3575
98.1396
97.4737
97.3879
97.4488
96.7792
96.7888
98.6256
96.8133
97.9131
97.5818
97.5254
97.0207
97.0928
97.2807
97.0921
97.3073
97.5595
98.7079
103.088
99.1853
96.1844
99.3187
96.3304
98.8758
98.1506
97.349
97.4633
97.3691
97.4732
97.3989
98.1384
97.5261
97.5646
97.6319
97.5709
97.5202
97.6069
97.6079
97.9414
103.215
98.9256
101.768
97.9734
98.6008
98.1806
97.984
98.0332
98.313
98.0733
97.9906
98.0045
98.2568
97.2537
98.327
97.7509
97.1115
97.7346
97.9574
97.2498
97.5408
97.4752
97.7171
97.6068
97.6737
97.6377
97.5425
97.9874
101.731
97.5322
98.2967
103.322
98.2723
97.9984
97.9709
98.0696
98.0008
98.281
98.0277
98.2715
97.9752
98.4984
98.4631
98.6102
98.4342
98.5506
98.465
98.617
101.742
100.021
100.454
100.234
108.834
99.7663
99.8821
96.5804
99.1971
99.7293
99.3035
96.403
99.1997
99.7582
99.1629
99.135
98.6226
101.891
98.605
100.77
98.9054
98.472
98.4287
98.4759
98.6157
98.4705
98.6197
98.4138
100.268
100.168
99.6209
99.8705
99.5631
100.27
100.413
96.5261
99.3069
99.1841
99.498
99.1715
99.8256
96.408
99.9153
99.9603
99.5697
99.535
99.9121
99.9597
99.5691
100.267
101.283
100.365
103.023
100.238
101.463
100.381
100.031
99.6653
100.04
99.4501
100.031
99.6654
100.042
100.346
100.612
100.462
100.489
100.46
100.466
100.32
99.916
99.5349
99.968
99.5672
99.9658
99.5702
99.9149
100.341
103.006
100.955
100.373
100.969
100.386
100.258
100.033
99.4375
99.659
100.053
99.661
100.061
100.038
100.276
100.165
99.147
99.3783
100.27
100.184
99.1354
100.361
101.373
100.193
100.826
100.347
101.332
100.195
99.9215
98.8384
100.328
98.8331
99.8639
98.8956
100.327
100.566
100.996
100.596
101.155
100.598
101.192
100.563
100.298
99.3903
100.174
99.152
100.181
99.1291
100.277
100.328
100.796
101.355
100.193
101.288
100.289
100.195
99.9284
98.8319
98.8718
100.331
98.8985
99.9006
100.33
99.9347
99.9673
98.7659
98.4087
99.8895
98.7746
99.9572
99.5287
99.5785
99.2485
99.5139
99.523
99.6416
99.2546
99.6718
98.3185
99.2566
98.1312
99.6779
98.325
99.2589
99.6236
100.061
100.127
99.7198
99.7157
99.6076
100.132
99.9758
98.4304
99.9381
98.7562
98.7758
100.027
99.9459
99.5315
99.5141
99.5929
99.2479
99.6033
99.2587
99.5219
99.6638
98.1629
98.4322
99.2418
98.3547
99.2538
99.6566
98.3119
98.7788
97.9992
98.3123
98.3203
98.7858
98.0302
98.3702
98.478
98.1053
98.2577
98.3799
98.5268
98.0995
98.2006
98.0084
97.9795
97.7803
98.1966
98.0108
97.9861
98.5176
99.1782
98.8375
98.9752
98.8212
98.4979
98.5155
98.3061
98.3487
98.7852
98.1633
98.7818
98.0684
98.2907
98.4545
98.2485
98.4787
98.0961
98.5005
98.1005
98.4583
98.2014
97.7677
98.0166
97.9857
98.013
97.9916
98.192
97.7986
97.7875
97.8387
97.8696
97.794
97.7988
97.8379
97.2147
98.0855
97.6118
97.7578
97.3841
97.6086
97.625
97.9236
97.6546
97.5941
97.5796
97.8964
97.6608
97.5916
97.7245
97.8369
97.896
97.706
97.8848
97.6991
97.69
97.9603
97.8604
97.808
97.83
97.8122
97.8397
97.8719
97.1747
97.6606
97.4611
97.6164
97.6057
97.6184
97.2172
97.9132
97.5784
97.6698
97.5945
97.6699
97.5937
97.8848
97.3803
97.334
97.5752
97.452
97.2791
97.6881
97.6678
97.4037
97.7221
97.3554
97.4016
97.6196
97.3793
97.4294
97.3315
97.2983
97.1118
97.2271
97.3314
97.3034
97.0959
98.184
97.7602
97.7641
101.971
97.7536
102.134
99.7893
98.494
97.452
97.2613
97.6543
97.3343
97.6857
98.1813
97.4152
97.402
97.5702
97.3659
97.4039
97.3642
97.5435
97.3304
97.2981
97.3103
97.1125
97.3072
97.0994
97.3438
97.1652
97.1251
97.0503
97.2198
97.1507
97.2222
97.0437
96.4994
98.4499
96.6566
95.6812
95.9015
103.29
96.6552
96.9697
96.8126
96.9839
96.87
96.9325
96.7958
96.9815
97.0535
97.4985
97.1685
97.0838
97.0996
97.0046
97.374
97.1741
97.2152
97.1493
97.0491
97.1436
97.0404
97.26
95.9701
96.3735
96.2136
96.6653
94.6427
96.6626
96.0707
96.9225
96.8719
96.8527
96.9932
96.7959
96.9937
96.9866
97.5583
97.0897
97.2909
97.0971
97.5538
97.0905
97.2745
99.0167
99.9124
96.0986
97.8682
98.9725
107.746
96.0199
98.1647
97.4972
97.3584
97.366
98.1553
97.4738
97.3277
97.8091
96.4756
96.8232
99.0034
96.7867
97.9299
97.8236
97.5671
97.0727
97.0988
97.3491
97.1001
97.2746
97.564
99.0574
97.3401
103.202
96.0157
101.53
95.8717
99.147
98.1644
97.3489
97.4956
97.3422
97.4778
97.3044
98.1795
97.5536
97.5732
97.6306
97.3614
97.5611
97.5718
97.5984
98.2097
97.4109
98.2963
99.0284
98.0142
97.5919
98.2997
98.0678
98.0157
98.2957
98.1018
97.983
97.9786
98.2984
97.2924
99.2834
97.8529
97.7783
97.821
97.8106
97.2747
97.5536
97.7873
97.5894
97.6815
97.5923
97.6073
97.5653
98.0959
97.4379
100.363
98.2947
97.7689
98.2965
98.0461
98.0178
98.0943
97.9962
98.3789
97.9819
98.2936
98.0431
98.6428
98.4831
98.6176
98.4308
98.5972
98.4931
98.6242
100.233
99.6136
99.944
100.094
100.465
99.578
99.8579
102.338
99.283
99.939
99.3057
102.967
99.3232
100.237
99.1607
98.7746
98.6419
105.702
98.6268
100.762