/*--------------------------------*- C++ -*----------------------------------*\
| =========                 |                                                 |
| \\      /  F ield         | OpenFOAM: The Open Source CFD Toolbox           |
|  \\    /   O peration     | Version:  5.0                                   |
|   \\  /    A nd           | Web:      www.OpenFOAM.org                      |
|    \\/     M anipulation  |                                                 |
\*---------------------------------------------------------------------------*/
FoamFile
{
    version     2.0;
    format      ascii;
    class       surfaceScalarField;
    location    "2.2";
    object      phi;
}
// * * * * * * * * * * * * * * * * * * * * * * * * * * * * * * * * * * * * * //

dimensions      [0 3 -1 0 0 0 0];

internalField   nonuniform List<scalar> 
23800
(
1.90463e-09
1.22745e-09
2.64438e-11
1.67069e-09
1.00829e-09
-1.94963e-08
-7.22385e-09
-3.22086e-08
5.31446e-08
1.52356e-09
2.89221e-09
-3.46655e-09
-3.18527e-10
6.96775e-10
2.37548e-09
-6.94134e-09
2.24233e-09
-4.88815e-09
-7.56288e-09
7.60459e-09
-1.3887e-09
-2.7617e-09
1.27478e-09
-3.44569e-09
-5.7391e-09
3.32027e-09
6.34333e-10
-2.3868e-09
1.39436e-08
9.85783e-09
6.97156e-10
-4.7806e-11
-6.43866e-09
5.25287e-11
9.06738e-13
4.86933e-11
-8.99845e-11
-3.67536e-11
2.10647e-10
8.12794e-12
2.14512e-11
-4.61456e-11
-6.263e-11
-8.96721e-11
1.40842e-09
9.95858e-12
-2.94731e-11
-2.58292e-10
-2.52036e-10
-4.35136e-10
-4.21053e-10
1.39601e-09
2.3536e-11
-7.03585e-13
1.39371e-09
8.85708e-12
2.41674e-13
1.39138e-09
5.89496e-12
-3.92452e-14
1.39092e-09
3.33866e-12
-1.25016e-13
1.3915e-09
1.10785e-12
4.02234e-13
1.39029e-09
6.18232e-13
-4.99008e-13
1.39019e-09
6.84137e-13
2.56892e-14
1.39041e-09
1.08226e-12
-2.97323e-13
1.39052e-09
2.99295e-13
-8.85494e-15
1.39042e-09
3.5263e-14
7.80674e-13
1.39047e-09
-4.14922e-13
-1.76911e-13
1.39044e-09
1.39641e-13
-1.51623e-13
1.39082e-09
2.7833e-13
8.30617e-13
1.39087e-09
3.03327e-13
-1.01939e-13
1.39075e-09
-9.24693e-13
7.89701e-13
1.39055e-09
-8.24976e-14
7.05487e-14
1.39083e-09
-5.56135e-13
3.46499e-13
1.3911e-09
3.6798e-13
-5.41564e-13
1.39118e-09
3.1214e-13
-5.49122e-13
1.39106e-09
3.16527e-14
1.00318e-13
1.39101e-09
-2.29858e-13
-1.11003e-12
1.39099e-09
9.32548e-14
-3.24696e-13
1.39024e-09
-1.1008e-12
3.8222e-12
1.39041e-09
-9.48043e-13
2.87034e-12
1.39006e-09
-1.68906e-13
1.88384e-13
1.39156e-09
-2.38839e-12
9.35148e-13
1.39165e-09
1.39093e-13
2.69052e-14
1.38997e-09
-2.62848e-13
-9.66576e-14
1.38978e-09
2.08591e-13
-2.10283e-13
1.38985e-09
6.03464e-13
-6.11403e-13
1.3914e-09
-2.0962e-12
1.50624e-13
1.39067e-09
4.42891e-13
1.03956e-13
1.39034e-09
1.01824e-13
-2.33954e-13
1.39054e-09
1.64628e-14
-2.63248e-13
1.39164e-09
2.45431e-12
5.65897e-15
1.39e-09
3.33885e-12
-1.64411e-12
1.39003e-09
-3.61841e-13
-1.34002e-14
1.38999e-09
2.17658e-13
-3.36712e-13
1.39068e-09
-5.77341e-13
-1.13433e-13
1.3904e-09
1.45683e-13
1.44549e-13
1.38992e-09
-3.96009e-13
6.15981e-13
1.27734e-12
-1.18219e-12
-5.42961e-10
-3.43934e-10
2.82082e-09
-1.90897e-09
-3.28253e-11
-2.98115e-09
1.02722e-10
2.55722e-09
3.5404e-10
-8.17375e-09
-8.54875e-09
3.64625e-09
4.13894e-09
8.93731e-09
4.42736e-10
1.59264e-10
-6.35548e-09
2.28296e-10
2.76578e-10
-6.75319e-11
1.52177e-09
1.50614e-08
-2.46663e-08
5.71496e-10
3.01361e-09
-5.03748e-10
2.75526e-09
1.11035e-09
1.9335e-09
-4.07197e-10
-2.19392e-09
-1.38122e-10
-2.08123e-10
2.58759e-10
-4.0601e-11
1.28088e-10
-3.93305e-11
1.02361e-13
5.3516e-13
1.1484e-11
2.72091e-11
1.40448e-09
3.89468e-12
-3.42087e-11
-2.53521e-10
-2.4729e-10
-4.37169e-10
-4.21638e-10
-2.93743e-12
5.48403e-12
-7.12388e-12
1.38974e-09
3.97833e-11
-1.44335e-12
1.38935e-09
9.66167e-12
-3.45588e-13
1.38876e-09
6.67082e-12
-1.31199e-13
1.38929e-09
2.91343e-12
-5.68231e-14
1.38944e-09
1.48193e-12
-4.58707e-13
1.38954e-09
6.80306e-13
-1.00023e-13
1.38987e-09
4.4617e-13
-3.03756e-14
1.38979e-09
8.21645e-13
4.09045e-13
1.39019e-09
-3.85117e-14
-6.0223e-15
1.39061e-09
-3.60591e-13
2.03548e-14
1.39077e-09
-4.65299e-13
-6.20427e-14
1.39057e-09
4.69272e-13
-9.19721e-14
1.39043e-09
1.1092e-13
3.42645e-13
1.39012e-09
4.09131e-13
2.37224e-13
1.39029e-09
1.30852e-12
-2.37898e-12
1.39177e-09
-2.15856e-12
6.21739e-13
1.39124e-09
3.51562e-13
-3.65609e-13
1.39078e-09
3.39429e-13
4.95035e-13
1.39087e-09
3.645e-13
-1.30106e-13
1.39095e-09
-1.08112e-13
6.0714e-14
1.39e-09
-8.58843e-13
1.57388e-12
1.39027e-09
-1.2754e-13
-5.83973e-14
1.39064e-09
3.79221e-13
-1.86791e-12
1.39079e-09
6.06357e-13
-1.71935e-12
1.39195e-09
-3.45733e-12
2.11324e-12
1.39099e-09
-2.81914e-12
1.35784e-12
1.39099e-09
2.12048e-13
-1.00279e-13
1.39087e-09
-1.0509e-13
-5.77543e-14
1.39091e-09
7.11429e-14
5.86559e-14
1.391e-09
9.02347e-14
3.97322e-13
1.38969e-09
-9.29274e-13
1.11897e-13
1.39e-09
1.40888e-13
-4.14106e-14
1.38994e-09
3.44721e-14
9.33519e-14
1.38919e-09
9.98396e-13
-2.59955e-13
1.39017e-09
8.1862e-13
6.2692e-13
1.39171e-09
9.73834e-14
1.67666e-12
1.39057e-09
7.0839e-13
4.26463e-14
1.39051e-09
-1.19055e-13
3.80636e-13
1.39014e-09
9.73996e-14
-3.26716e-13
1.39006e-09
2.94857e-13
-7.64263e-14
1.39033e-09
7.17333e-14
-7.49459e-13
-2.29599e-13
1.21277e-12
-1.88974e-10
-4.64975e-09
3.54766e-10
6.40285e-09
-6.95092e-10
-2.20078e-10
-8.12754e-10
1.40372e-09
6.84992e-11
2.07518e-08
-2.16091e-09
1.19486e-09
-3.92765e-09
2.65551e-09
-3.07401e-08
2.18317e-08
9.88416e-09
-5.97327e-09
-3.12765e-09
-7.44407e-09
-4.03005e-09
-7.34347e-10
5.01441e-10
-1.16603e-09
1.64366e-09
-3.37297e-09
2.7419e-09
3.77458e-09
5.35686e-09
2.05086e-09
-9.77861e-09
-2.19403e-09
-7.57378e-10
2.9052e-08
-9.06314e-10
-2.09196e-09
-2.1746e-09
1.27653e-08
-7.64253e-09
-1.48081e-08
4.84794e-11
-1.18367e-09
-1.45108e-11
-4.03418e-09
1.26098e-10
-3.15473e-09
-2.87153e-09
1.52026e-09
-1.67016e-09
-8.9516e-10
-1.14895e-09
-7.04988e-11
1.17207e-10
2.13421e-11
1.41152e-10
-2.09202e-10
-1.31632e-10
1.75053e-11
-1.16401e-11
7.75975e-11
4.81692e-11
-1.82329e-10
1.89692e-10
-3.85777e-13
-3.07773e-12
1.35045e-09
-1.20146e-11
-2.17661e-11
-2.39819e-10
-2.42271e-10
-3.95772e-10
-3.98989e-10
1.37131e-09
-9.17774e-12
-1.92285e-12
1.38082e-09
-3.39766e-12
6.37061e-13
1.38558e-09
-1.74867e-12
-3.69133e-14
1.38793e-09
-8.20566e-13
2.49518e-14
1.38908e-09
-3.79061e-13
-1.68449e-14
1.3897e-09
-1.06442e-13
2.96275e-15
1.39059e-09
-7.04275e-14
6.82229e-14
1.39084e-09
-2.41842e-13
2.11902e-14
1.39067e-09
5.81398e-13
-7.26017e-13
1.38971e-09
7.3696e-13
-1.9936e-13
1.39041e-09
-3.38246e-13
1.49043e-13
1.39073e-09
1.48091e-13
-3.21062e-13
1.3915e-09
-3.24632e-13
-2.30001e-15
1.39078e-09
-2.89612e-14
2.08455e-12
1.38957e-09
-2.25073e-13
-7.01347e-13
1.39023e-09
-2.72358e-13
-2.64787e-14
1.39069e-09
-1.5497e-13
4.57448e-14
1.39051e-09
2.46208e-13
3.08154e-13
1.39021e-09
1.01525e-14
1.84496e-13
1.39084e-09
7.6729e-13
-2.26439e-12
1.3914e-09
9.42317e-13
-1.64182e-12
1.39123e-09
5.25667e-13
1.66501e-14
1.39218e-09
7.568e-13
-1.12458e-12
1.3908e-09
-5.02186e-14
-2.04303e-12
1.39049e-09
2.34192e-13
-2.77013e-12
1.39051e-09
1.96157e-13
-3.33057e-14
1.39056e-09
-2.64542e-13
8.00581e-14
1.39069e-09
1.63924e-13
-2.51579e-13
1.39049e-09
-1.98008e-14
2.7775e-13
1.39015e-09
-2.82439e-13
-3.32433e-13
1.39046e-09
-1.01493e-13
-1.0648e-13
1.38936e-09
9.72465e-13
1.28673e-13
1.38973e-09
-3.23984e-13
9.21146e-13
1.38981e-09
5.29968e-13
1.81888e-13
1.39143e-09
-1.59708e-12
5.09739e-14
1.39113e-09
1.12199e-12
-1.33095e-13
1.39078e-09
2.05705e-14
1.86874e-13
1.39025e-09
-4.94447e-14
6.6232e-13
1.38998e-09
5.76705e-13
-2.64588e-14
1.38971e-09
2.35654e-13
9.83514e-14
-1.99062e-12
8.28816e-13
6.45619e-10
-7.22508e-10
-1.68184e-08
3.30513e-11
-2.38624e-09
6.11056e-09
1.71062e-08
3.72814e-08
-3.44167e-08
-2.26195e-09
-1.8192e-09
-2.03909e-09
-3.82043e-09
4.70356e-10
1.56605e-09
2.46024e-09
2.3629e-09
-1.19117e-10
-1.5297e-09
-8.8066e-10
-1.1389e-09
9.35942e-09
-5.08566e-09
-2.2542e-09
-2.94405e-09
-2.00857e-10
1.85742e-09
5.30123e-10
5.23981e-11
-3.46735e-09
6.33928e-10
-3.56427e-09
6.3453e-09
1.34088e-10
-1.49588e-10
1.34362e-10
-6.29972e-11
-5.58646e-11
-3.355e-11
-4.9228e-11
4.64816e-12
1.74104e-11
6.07194e-11
-3.03481e-11
1.9408e-10
-1.52174e-11
-7.84182e-12
-3.25103e-11
-5.63058e-11
-6.19144e-11
1.00578e-11
1.3751e-09
-2.8335e-11
-2.48268e-11
-2.49425e-10
-2.5222e-10
-4.11819e-10
-4.2044e-10
1.38287e-09
-1.42084e-11
-2.60675e-12
1.38593e-09
-6.83139e-12
4.77269e-13
1.3877e-09
-3.32847e-12
-1.10882e-13
1.38879e-09
-1.85702e-12
1.5731e-14
1.38948e-09
-9.56144e-13
-2.7403e-14
1.3898e-09
-3.14094e-13
-3.32961e-14
1.38999e-09
-1.54499e-13
-3.05295e-14
1.39022e-09
-1.82709e-13
-2.27131e-13
1.39016e-09
4.5001e-14
6.48642e-13
1.39074e-09
1.10388e-13
9.26852e-14
1.39057e-09
-1.15644e-13
-1.9497e-14
1.39092e-09
-3.77462e-14
-1.2454e-13
1.39069e-09
-4.89288e-14
-1.42641e-14
1.39099e-09
-3.94732e-13
9.01991e-14
1.39094e-09
-1.14433e-13
-4.18962e-14
1.39063e-09
-3.36513e-14
8.51463e-14
1.39066e-09
-9.81204e-14
-7.20985e-14
1.39078e-09
2.82393e-15
1.30454e-13
1.391e-09
7.85935e-13
-9.95421e-13
1.39143e-09
1.1086e-12
-7.80813e-13
1.39072e-09
-4.95393e-14
1.69296e-12
1.39079e-09
4.96117e-13
-4.63878e-14
1.39056e-09
2.87486e-13
6.82558e-13
1.39064e-09
-1.70691e-13
2.00694e-14
1.39069e-09
2.94991e-14
1.29759e-13
1.39089e-09
-1.02245e-13
6.40409e-14
1.39065e-09
-1.27648e-13
7.63714e-14
1.3907e-09
-2.0678e-13
2.92857e-13
1.39055e-09
1.91684e-13
-9.74668e-14
1.39023e-09
-4.13028e-13
4.18163e-13
1.3896e-09
7.00168e-13
-2.04503e-13
1.39081e-09
-1.5868e-13
-1.0997e-13
1.39059e-09
1.84993e-13
-3.1227e-13
1.39071e-09
6.42504e-13
-2.64988e-13
1.39001e-09
-1.41995e-12
4.95723e-13
1.39065e-09
1.52466e-13
3.11392e-13
1.39076e-09
1.19074e-13
-2.2804e-13
1.39074e-09
1.67426e-12
-1.72114e-12
1.38948e-09
1.84598e-12
-2.75932e-14
1.38984e-09
-7.16678e-14
-5.93624e-14
-1.98693e-12
3.61605e-13
-3.44327e-09
-3.26742e-09
6.17913e-09
3.91946e-09
2.01616e-09
-6.88863e-09
-8.60284e-11
1.03904e-09
6.97211e-11
1.88774e-09
-2.62798e-09
-2.6831e-10
3.20089e-11
2.20837e-10
-4.91874e-10
3.38396e-09
-2.16045e-08
-1.79396e-08
3.73382e-08
5.51614e-09
-8.19005e-10
7.93467e-10
-5.34488e-09
-1.4573e-10
-4.70489e-10
-1.08114e-09
1.1634e-09
2.31059e-09
-1.92236e-09
-1.34793e-10
8.55579e-11
2.00472e-12
2.03083e-10
-1.55852e-10
-1.2042e-10
-1.6942e-11
-3.03794e-12
-1.64474e-11
1.56847e-10
-3.76273e-11
2.1614e-10
-4.35866e-12
3.20225e-12
-4.13327e-11
-6.92751e-11
-8.15223e-11
1.47734e-11
1.40914e-09
-1.01874e-12
-2.69984e-11
-2.64773e-10
-2.63709e-10
-4.41034e-10
-4.39879e-10
1.39853e-09
-7.89267e-13
-2.66451e-12
1.3932e-09
-1.79758e-12
4.08756e-13
1.39095e-09
-9.01872e-13
-9.84964e-14
1.39077e-09
-5.64121e-13
-1.03693e-12
1.3909e-09
-9.61451e-13
-4.22195e-14
1.39013e-09
1.31067e-12
-7.72277e-13
1.39004e-09
4.57806e-13
-4.46303e-13
1.39026e-09
-5.01869e-13
1.57667e-13
1.39026e-09
1.35239e-13
-3.60081e-14
1.39026e-09
9.26049e-14
5.92709e-14
1.39085e-09
7.07702e-14
-7.3139e-13
1.39066e-09
1.83965e-13
5.24739e-15
1.39065e-09
-1.08915e-12
1.07433e-12
1.39112e-09
-1.25212e-13
-7.16353e-13
1.39103e-09
-8.30726e-14
8.27574e-14
1.39103e-09
-1.77854e-13
1.63362e-13
1.39118e-09
-3.21306e-13
8.48759e-14
1.39121e-09
-6.15813e-15
-1.29074e-14
1.39096e-09
2.46536e-13
7.88195e-13
1.39015e-09
6.11169e-13
1.29761e-12
1.39094e-09
-1.4022e-12
5.59176e-13
1.39119e-09
3.71828e-13
-1.44641e-13
1.39055e-09
1.34499e-12
-4.33859e-13
1.39062e-09
-7.52689e-14
-1.80965e-13
1.39068e-09
-3.66064e-14
-2.28339e-14
1.39053e-09
-3.76272e-14
5.59462e-14
1.39044e-09
2.40704e-15
-6.12675e-14
1.39025e-09
7.5176e-13
-8.04653e-13
1.39024e-09
3.21698e-13
-1.51005e-13
1.39024e-09
-1.35875e-13
-3.05951e-13
1.39067e-09
-4.30012e-14
2.80952e-13
1.39041e-09
4.18331e-13
-3.48559e-13
1.39064e-09
6.53513e-13
-7.26092e-13
1.39082e-09
3.32042e-13
9.56705e-14
1.39012e-09
-4.16725e-13
-3.29957e-13
1.39044e-09
-2.51364e-13
5.98283e-14
1.39089e-09
-4.14718e-13
6.69512e-14
1.39108e-09
-1.29659e-12
2.76615e-12
1.38942e-09
3.4511e-12
4.26703e-14
1.38969e-09
-7.85415e-13
4.2707e-13
-1.97643e-13
-9.4887e-13
-1.01599e-09
5.19447e-10
-1.4578e-09
2.29953e-08
-1.02155e-08
4.52919e-09
-1.51637e-08
-3.25198e-09
-3.51719e-09
1.13314e-08
-6.76986e-09
-7.55088e-10
2.61105e-09
-2.73976e-11
3.79045e-10
4.28167e-10
-1.65883e-09
-1.95188e-10
3.08213e-09
-1.65627e-09
-1.10396e-09
5.87869e-10
5.65198e-09
1.13762e-09
1.01476e-09
1.95876e-09
-2.05926e-10
4.0977e-10
-1.178e-09
-2.79607e-09
8.24466e-11
3.03942e-10
5.55502e-10
-2.56812e-09
-1.37814e-08
6.8418e-09
-3.54259e-11
1.20279e-09
-5.10974e-10
2.43392e-09
2.76431e-10
-8.1749e-09
-6.02308e-09
1.28177e-08
-1.17603e-10
-7.681e-10
3.7392e-10
1.52577e-11
4.96528e-10
-1.30055e-10
2.52106e-11
-1.48252e-12
-3.10052e-11
1.37332e-10
-3.77951e-11
2.13311e-10
4.71657e-12
8.57906e-12
-2.57853e-12
-3.98957e-11
-6.97917e-11
-7.65458e-11
1.40241e-09
1.60252e-11
-2.63342e-11
-2.61305e-10
-2.61858e-10
-4.33583e-10
-4.36308e-10
1.39687e-09
7.6467e-12
-2.78065e-12
1.39286e-09
1.90877e-12
3.94295e-13
1.39181e-09
4.44994e-13
-2.14397e-13
1.39061e-09
-3.15899e-13
1.02722e-12
1.39007e-09
-3.08015e-13
-4.28336e-14
1.39074e-09
-3.2742e-14
7.57902e-13
1.39083e-09
4.88717e-14
3.86543e-13
1.39056e-09
-1.20691e-13
-5.39129e-14
1.39052e-09
2.32583e-12
-2.09905e-12
1.39077e-09
-4.97588e-14
-5.84388e-14
1.39071e-09
-8.81132e-13
1.0524e-12
1.39099e-09
2.51281e-13
-3.09986e-13
1.39079e-09
2.89013e-13
-1.15025e-12
1.39108e-09
-6.13574e-13
2.25704e-13
1.39085e-09
-1.3769e-14
1.74368e-13
1.39053e-09
-1.45047e-13
3.07387e-13
1.39145e-09
9.53698e-13
-2.18114e-12
1.39147e-09
-3.77488e-14
1.20416e-14
1.39164e-09
2.06908e-13
-1.33277e-13
1.39192e-09
4.47655e-13
-1.19398e-13
1.38952e-09
4.46838e-12
-3.47844e-12
1.38967e-09
-1.08052e-12
1.29108e-12
1.39085e-09
-6.79079e-13
8.28841e-13
1.39067e-09
3.19015e-14
5.47298e-14
1.39054e-09
1.78208e-13
-1.12617e-13
1.39033e-09
7.90161e-13
-6.47985e-13
1.39037e-09
-3.43845e-15
-6.32608e-14
1.39049e-09
5.47569e-15
5.96337e-13
1.39046e-09
1.15709e-13
2.08352e-13
1.39044e-09
-6.45861e-13
4.99003e-13
1.39093e-09
-7.93093e-13
2.22323e-13
1.39062e-09
3.00276e-13
4.00149e-13
1.39045e-09
5.20216e-13
2.71328e-13
1.39046e-09
3.38844e-13
-4.9431e-14
1.38978e-09
2.90464e-13
-4.75642e-14
1.38974e-09
-1.4018e-13
-9.52368e-14
1.38951e-09
-1.14127e-13
-8.95209e-14
1.38942e-09
1.5225e-12
-2.75046e-12
1.39152e-09
1.1747e-12
1.68243e-13
1.39104e-09
-6.81833e-13
3.70078e-13
-8.24809e-13
1.76772e-12
-4.46468e-09
1.09228e-09
2.27744e-09
1.28594e-09
-5.48515e-09
5.00324e-09
4.6385e-09
9.95746e-11
-1.38998e-09
-8.5767e-10
-1.2534e-09
-7.55119e-10
-1.06906e-10
2.06595e-09
6.07159e-11
6.19236e-10
1.85769e-09
3.20579e-10
8.12275e-10
1.2608e-08
-2.4965e-08
1.05576e-08
-3.83019e-09
-4.72306e-09
-4.36007e-09
-4.13395e-09
1.3805e-08
-3.01693e-09
-5.53054e-09
5.08547e-09
3.75695e-10
3.27637e-10
-1.31827e-11
4.78588e-10
6.35613e-10
3.84449e-10
7.7153e-10
5.01707e-10
3.23038e-10
-3.98355e-10
6.91063e-10
-2.39131e-10
-3.76614e-10
-1.08763e-10
4.45635e-11
-2.04047e-11
-6.5378e-11
1.49982e-10
-3.11057e-11
-1.14468e-11
1.79076e-10
4.79947e-12
1.71232e-11
-3.47846e-11
-5.75025e-11
-6.61596e-11
1.3744e-09
-9.30605e-12
-2.43316e-11
-2.49538e-10
-2.49605e-10
-4.12609e-10
-4.12942e-10
1.38529e-09
-1.08425e-12
-2.07752e-12
1.38843e-09
-1.68837e-12
5.19606e-13
1.38984e-09
-8.45546e-13
-6.4672e-14
1.39034e-09
-6.88709e-13
-6.04279e-14
1.3906e-09
-5.01494e-13
2.64473e-15
1.39029e-09
4.07031e-13
-5.44029e-14
1.39058e-09
-1.82874e-13
2.61682e-15
1.39062e-09
-1.02452e-13
6.90089e-15
1.39077e-09
5.35117e-14
2.17132e-12
1.39127e-09
-6.88129e-13
1.80891e-13
1.39078e-09
3.06637e-14
-3.77308e-13
1.39057e-09
1.1571e-13
3.72054e-13
1.39086e-09
6.97596e-15
2.53411e-14
1.39071e-09
-2.98946e-13
-1.34158e-13
1.39095e-09
-2.49793e-14
-2.07675e-13
1.39122e-09
2.44635e-13
-6.48941e-13
1.39047e-09
-4.46721e-13
2.16292e-12
1.39083e-09
-5.10199e-13
1.18886e-13
1.39132e-09
-3.805e-13
1.01366e-13
1.38934e-09
5.63937e-12
-3.22049e-12
1.39087e-09
4.78342e-13
2.45124e-12
1.3912e-09
-3.75934e-13
-1.04393e-12
1.39072e-09
-1.95756e-13
-2.48375e-14
1.39064e-09
1.16643e-14
8.12802e-14
1.39066e-09
-6.19195e-14
1.92762e-13
1.39083e-09
-1.04109e-13
6.98158e-13
1.39074e-09
-1.38575e-15
5.53597e-14
1.39063e-09
-5.92623e-14
1.44177e-13
1.39068e-09
6.773e-13
-6.36848e-13
1.39046e-09
-2.95282e-14
-4.29773e-13
1.39073e-09
-1.40854e-12
3.11284e-13
1.39116e-09
-9.39506e-14
-6.64124e-14
1.38992e-09
1.61802e-12
1.14668e-13
1.39006e-09
-1.1723e-13
2.80521e-13
1.38965e-09
5.1663e-13
1.65381e-13
1.38976e-09
-2.23452e-13
-5.03726e-14
1.38958e-09
3.91137e-14
6.18967e-15
1.38998e-09
-6.87004e-13
1.79298e-12
1.39041e-09
6.94411e-13
3.31907e-14
1.39076e-09
-1.03261e-13
-9.39744e-13
-1.9064e-13
-1.25525e-12
3.15234e-09
5.43118e-09
-6.79064e-09
-3.08445e-10
-4.38806e-10
-6.30265e-10
-2.24387e-10
4.39347e-12
-1.70041e-09
9.63585e-10
5.50331e-10
1.82106e-10
-3.22306e-09
-7.31376e-10
1.95717e-09
5.28236e-09
-9.31246e-10
-8.12081e-10
-1.15754e-09
-3.84236e-10
-2.66425e-10
8.19464e-11
5.27408e-11
5.91168e-10
-4.59429e-10
8.92916e-10
-3.88086e-09
1.12891e-09
-5.46647e-10
5.94514e-10
9.78574e-10
3.89773e-10
2.35035e-10
2.71616e-11
-2.60356e-10
4.40972e-10
-1.19978e-10
-5.52934e-10
3.51512e-10
3.11448e-10
9.9516e-12
-1.07179e-10
2.88805e-11
-3.75195e-11
-1.06104e-11
1.26429e-10
-3.35254e-11
2.88437e-13
1.8152e-10
-8.36197e-12
1.31515e-11
-3.32075e-11
-6.0488e-11
-5.93774e-11
1.37814e-09
-3.65182e-11
-2.49287e-11
-2.49055e-10
-2.50385e-10
-4.10106e-10
-4.16428e-10
1.38623e-09
-7.14284e-12
-1.99483e-12
1.38912e-09
-4.97061e-12
4.35311e-13
1.39016e-09
-1.78185e-12
-6.01388e-14
1.39036e-09
-8.3825e-13
5.44582e-15
1.39036e-09
-4.22297e-13
-1.23254e-14
1.39102e-09
-2.18919e-13
2.49771e-14
1.39091e-09
-1.04494e-14
1.38675e-15
1.39092e-09
-1.16025e-12
1.10629e-12
1.39103e-09
-1.0169e-15
-7.47539e-15
1.39033e-09
1.9731e-13
-1.41007e-13
1.39072e-09
-5.80899e-13
2.56906e-13
1.39103e-09
-1.38532e-13
-1.59834e-14
1.39105e-09
2.80284e-13
-2.63777e-13
1.39086e-09
-4.75941e-13
3.87712e-13
1.39105e-09
-1.8859e-13
-3.51686e-15
1.39056e-09
-6.79268e-15
7.52256e-13
1.39064e-09
-3.59791e-13
-1.53686e-13
1.39032e-09
4.0162e-14
-2.18716e-13
1.38938e-09
6.87287e-13
-1.2707e-13
1.39119e-09
5.66987e-13
3.25866e-12
1.39103e-09
6.45252e-13
-1.48678e-14
1.39166e-09
-2.47085e-12
1.45053e-12
1.39136e-09
9.33295e-14
-4.63501e-15
1.39053e-09
1.09593e-12
-2.83978e-13
1.39052e-09
-1.26269e-13
5.3706e-14
1.39058e-09
-8.3651e-14
-1.04522e-13
1.39075e-09
-5.94081e-14
-1.41355e-13
1.39067e-09
-1.00537e-13
9.26089e-14
1.39069e-09
-2.67999e-13
8.8848e-13
1.39087e-09
-1.93881e-13
-4.7355e-14
1.39031e-09
-3.14455e-13
-5.6428e-13
1.38978e-09
1.52611e-13
2.47852e-13
1.39067e-09
7.91944e-13
-9.50553e-14
1.38997e-09
1.1084e-12
-5.52325e-13
1.39035e-09
3.06965e-13
-1.98778e-13
1.38999e-09
1.21728e-13
-3.04499e-15
1.38949e-09
4.8958e-13
2.885e-14
1.39e-09
-1.07846e-12
-1.40112e-13
1.38983e-09
5.88151e-13
2.67675e-13
1.39125e-09
-3.28848e-12
1.75916e-12
-2.88975e-13
-4.50549e-13
5.44881e-09
4.26312e-10
-3.46476e-09
-1.57719e-10
-1.18758e-09
-7.76675e-10
-3.17596e-09
2.60023e-09
7.10686e-10
9.6554e-10
-2.30844e-09
-6.08879e-10
-5.6216e-08
7.79659e-10
-1.61227e-10
9.72847e-10
-2.76827e-10
-2.68616e-09
-4.38103e-10
-9.81572e-10
1.78052e-07
-3.51897e-08
-7.68837e-08
-5.57905e-10
1.53284e-09
4.19315e-10
1.39283e-09
7.14481e-10
-6.13662e-10
-3.80211e-09
-2.32664e-10
-1.3273e-09
1.1588e-09
2.51472e-10
1.49702e-10
1.44031e-09
1.37966e-09
-4.48469e-10
-3.02008e-09
9.22012e-11
1.86153e-10
3.78606e-10
-8.38191e-12
1.77104e-10
-1.10208e-10
-9.63707e-11
-2.2325e-10
2.52724e-10
-1.57093e-10
-1.31088e-11
1.23832e-11
1.14613e-10
4.32056e-11
1.43786e-09
2.20326e-11
-3.32904e-11
-2.62157e-10
-2.61562e-10
-4.44006e-10
-4.43349e-10
-4.66156e-13
-6.06281e-12
1.79859e-12
-1.07956e-11
1.40798e-09
-5.36693e-12
-1.30137e-12
1.39981e-09
1.27441e-12
-2.27911e-13
1.39484e-09
1.25097e-13
-7.88397e-14
1.39268e-09
4.90503e-13
-5.64244e-14
1.39148e-09
3.8583e-13
2.83967e-14
1.39121e-09
-9.11015e-14
-8.46402e-15
1.39095e-09
9.89645e-14
-5.90268e-16
1.39039e-09
6.58232e-13
-5.48988e-14
1.39055e-09
-2.18984e-13
-1.05243e-12
1.39092e-09
-1.22687e-13
-1.92792e-13
1.39113e-09
3.22897e-15
2.00241e-14
1.39084e-09
-1.44475e-14
-2.34117e-13
1.39083e-09
-1.61771e-13
6.49051e-14
1.3904e-09
1.04686e-12
-3.06453e-13
1.39074e-09
-2.54823e-13
-5.33216e-13
1.39049e-09
1.06222e-13
-2.67964e-14
1.39119e-09
2.13704e-13
-9.04526e-13
1.39115e-09
-3.68848e-13
6.56443e-14
1.3904e-09
1.52385e-12
-7.2507e-13
1.3911e-09
-1.01432e-13
9.03086e-14
1.39124e-09
2.64945e-13
1.58138e-13
1.39117e-09
8.42924e-14
6.14947e-13
1.3904e-09
-1.84321e-13
-1.52684e-12
1.39038e-09
1.29142e-13
-3.1968e-14
1.39119e-09
1.06495e-12
-8.01491e-13
1.39033e-09
-7.48279e-14
7.84001e-13
1.39033e-09
-1.12617e-13
1.72905e-15
1.39067e-09
-8.79508e-13
4.50245e-13
1.3907e-09
-2.97579e-13
1.33865e-13
1.39096e-09
-3.48297e-13
-2.07082e-13
1.39054e-09
9.1804e-13
-7.24289e-13
1.39058e-09
-3.3879e-13
-5.17889e-14
1.39094e-09
-3.22338e-13
8.80365e-14
1.39037e-09
2.59075e-12
-1.25682e-12
1.38996e-09
1.29479e-12
1.87905e-13
1.38982e-09
3.71791e-13
5.25482e-14
1.39038e-09
-7.84867e-13
3.229e-13
1.39076e-09
-1.14339e-13
2.02286e-13
1.38967e-09
2.4895e-13
-2.49279e-13
1.38994e-09
4.233e-13
-1.21005e-13
1.38977e-09
1.00131e-12
-4.12432e-12
-1.83947e-12
-1.74371e-14
1.7928e-10
-6.29519e-10
1.0675e-09
2.84852e-09
6.29043e-10
-3.58251e-09
-5.03945e-10
-1.18401e-09
-4.14197e-09
7.02029e-09
3.26976e-10
-2.02129e-09
2.0632e-09
2.57729e-09
2.71359e-09
-9.19207e-10
-6.43488e-09
-3.84326e-10
4.66827e-09
2.85879e-09
1.18545e-09
-2.27088e-09
-1.96375e-09
-2.53933e-09
-1.55423e-09
-4.91477e-11
-4.50827e-10
-1.19022e-10
-7.27964e-12
6.26276e-10
-3.91023e-11
-1.06881e-12
1.30947e-12
1.05871e-11
2.82746e-11
1.4187e-09
-3.36063e-11
-2.59492e-10
-2.55323e-10
-4.42562e-10
-4.28089e-10
1.40318e-09
-2.34157e-13
1.39779e-09
-2.81224e-14
1.3945e-09
1.13916e-14
1.39225e-09
1.04759e-13
1.39071e-09
-5.54632e-14
1.39135e-09
4.99136e-13
1.39102e-09
-4.7507e-14
1.39094e-09
-1.3052e-13
1.39054e-09
-9.10091e-14
1.39053e-09
-7.16235e-13
1.39098e-09
2.01483e-13
1.39099e-09
1.05748e-13
1.39037e-09
-9.42956e-13
1.39075e-09
4.8542e-13
1.39067e-09
1.38948e-13
1.391e-09
3.80169e-14
1.39091e-09
2.75692e-13
1.39036e-09
9.75385e-14
1.3909e-09
1.15654e-12
1.39085e-09
-6.33362e-14
1.39132e-09
1.1785e-12
1.39121e-09
4.17899e-13
1.39093e-09
-1.90198e-12
1.39e-09
-1.0821e-12
1.39024e-09
1.10761e-12
1.39054e-09
-4.76227e-13
1.39e-09
1.04507e-13
1.39122e-09
-1.26822e-13
1.39097e-09
5.9391e-14
1.39045e-09
3.25784e-14
1.39092e-09
7.61664e-13
1.39055e-09
1.46434e-13
1.39061e-09
4.5052e-15
1.39167e-09
1.50523e-12
1.38978e-09
-4.48145e-13
1.3902e-09
-1.6327e-13
1.39003e-09
-3.22262e-13
1.39024e-09
-2.20684e-13
1.39044e-09
1.78932e-14
1.39108e-09
-2.62798e-13
1.38983e-09
2.49401e-12
7.53841e-14
9.62808e-09
3.5289e-10
-2.24018e-09
-9.1488e-09
-6.96095e-11
-2.28228e-08
-2.32101e-09
2.72527e-08
-1.39346e-09
2.85621e-09
-3.47606e-10
-6.61479e-10
-1.86791e-09
4.89276e-10
-3.06993e-09
3.8831e-09
-2.20772e-09
9.93463e-09
6.54154e-09
3.06746e-09
1.64686e-09
6.44144e-09
-2.82096e-09
1.22762e-10
-7.46587e-10
5.0541e-10
-1.99551e-10
5.24757e-11
-1.18844e-10
-3.60757e-11
6.23871e-10
1.07996e-11
1.0031e-11
-1.79551e-10
-1.19834e-10
-1.80441e-10
2.34756e-09
7.98048e-12
2.95931e-11
-6.0524e-10
-5.87055e-10
-6.05227e-10
-5.87053e-10
2.32372e-09
3.589e-11
5.3783e-13
2.32114e-09
1.16487e-11
-1.10191e-13
2.31767e-09
7.91707e-12
-6.85441e-14
2.31721e-09
4.31381e-12
-4.36091e-13
2.3183e-09
2.62244e-12
-8.2078e-13
2.31664e-09
8.72239e-13
6.68044e-13
2.31645e-09
9.27083e-13
1.75214e-13
2.31686e-09
-1.90163e-13
4.797e-13
2.31696e-09
4.65003e-13
-4.80496e-14
2.31683e-09
1.10863e-14
1.46481e-12
2.31695e-09
-4.00585e-13
-2.19957e-13
2.31697e-09
1.93653e-13
-4.60201e-13
2.31752e-09
4.31199e-13
-9.13436e-13
2.31743e-09
-3.0184e-13
1.81036e-13
2.31738e-09
4.45612e-13
2.2421e-13
2.31711e-09
4.24617e-14
3.85734e-15
2.31747e-09
5.08146e-13
-3.48776e-13
2.31796e-09
-1.46124e-12
6.27894e-13
2.31825e-09
-6.50012e-13
9.08697e-14
2.31821e-09
2.48733e-14
4.07735e-14
2.31753e-09
-5.09783e-13
3.58144e-13
2.31761e-09
1.75872e-13
-2.23707e-13
2.31656e-09
5.666e-12
-1.549e-12
2.31665e-09
4.65601e-12
-2.90164e-12
2.31658e-09
-1.69546e-13
-2.62339e-13
2.31883e-09
1.246e-12
-1.86965e-12
2.31879e-09
3.57977e-13
1.96271e-14
2.31642e-09
-1.63922e-13
3.73621e-13
2.31593e-09
3.36924e-13
3.93861e-13
2.31603e-09
-1.41348e-12
8.40739e-13
2.3183e-09
-8.25706e-13
-1.79643e-12
2.31748e-09
7.79938e-13
-1.14624e-13
2.31688e-09
2.72565e-13
-1.47917e-13
2.31723e-09
-9.42731e-14
-6.82434e-14
2.31892e-09
1.76663e-12
1.29774e-13
2.31641e-09
3.78803e-12
-2.95837e-12
2.31651e-09
-6.12142e-13
-1.37239e-13
2.31638e-09
-9.03405e-13
6.48213e-13
2.31737e-09
-7.69393e-13
-4.51327e-13
2.31701e-09
1.36908e-13
1.84044e-13
2.31599e-09
5.79681e-13
7.78467e-13
-6.06274e-13
-4.40908e-13
-3.89982e-10
-1.48099e-08
-1.11574e-09
1.68972e-08
-4.35089e-10
-7.64739e-09
3.17331e-09
-1.98685e-09
1.59503e-09
-2.49071e-09
7.3566e-09
3.67482e-10
-7.77773e-11
-1.21061e-08
1.61713e-09
-3.79326e-10
1.05783e-08
-2.06435e-09
2.80847e-09
-2.6946e-09
-3.27571e-09
-5.21068e-10
-3.86657e-12
5.48947e-09
-9.94948e-09
2.59902e-08
8.84584e-09
-3.09805e-08
5.33627e-09
-6.94114e-10
2.62314e-09
2.1336e-09
-7.19315e-09
-2.20575e-09
-3.83458e-10
-2.79227e-11
-1.77484e-10
8.33924e-11
8.60087e-11
4.19464e-10
-1.49132e-10
-1.0819e-11
1.81127e-12
1.24042e-12
2.13281e-13
1.56686e-10
2.34514e-09
6.00048e-12
3.4031e-11
-6.09497e-10
-5.89042e-10
-6.09487e-10
-5.89035e-10
-1.00951e-11
5.99234e-12
-1.01002e-11
2.31748e-09
6.10498e-11
1.22355e-12
2.31585e-09
1.27354e-11
3.47509e-13
2.31468e-09
8.99355e-12
9.54343e-14
2.31531e-09
3.7487e-12
8.21228e-15
2.31541e-09
1.78842e-12
4.21347e-13
2.31555e-09
7.19471e-13
6.2439e-14
2.31611e-09
4.84129e-13
1.99105e-15
2.31585e-09
8.83144e-13
-2.68677e-13
2.31655e-09
-1.23751e-13
3.13478e-15
2.31721e-09
-4.67702e-13
-5.72368e-14
2.31736e-09
-5.48764e-13
3.26726e-14
2.31714e-09
2.69283e-13
1.32036e-13
2.31702e-09
8.67756e-13
1.04645e-13
2.3164e-09
6.46734e-13
-3.13671e-14
2.31671e-09
-3.423e-12
1.22795e-12
2.31903e-09
-4.74147e-12
3.12816e-12
2.31819e-09
5.64731e-13
4.47022e-13
2.31733e-09
5.09792e-13
-5.93094e-13
2.31744e-09
5.33387e-13
-1.41628e-12
2.31756e-09
4.42252e-14
-8.13136e-14
2.31612e-09
4.90468e-12
-2.41769e-12
2.31645e-09
-1.35538e-13
-9.94708e-14
2.3174e-09
6.97566e-13
2.10831e-12
2.31764e-09
9.17992e-13
1.73898e-12
2.31928e-09
-2.57452e-12
2.83069e-12
2.31811e-09
1.18681e-12
2.52668e-12
2.31784e-09
3.81762e-13
8.33663e-14
2.31759e-09
-1.10281e-13
6.80225e-14
2.31777e-09
2.05151e-13
-5.65327e-14
2.31783e-09
-4.38181e-13
-7.09795e-13
2.31588e-09
-6.71064e-13
1.83334e-12
2.31621e-09
2.90852e-13
4.8564e-14
2.31604e-09
4.24049e-13
4.76236e-14
2.31509e-09
7.1478e-13
-1.88912e-13
2.31662e-09
1.16907e-12
-3.69386e-13
2.31883e-09
-5.01895e-14
3.25351e-12
2.31728e-09
2.10965e-12
-1.17484e-12
2.31716e-09
-7.74849e-14
-3.63615e-13
2.31667e-09
-1.30677e-12
6.60216e-13
2.31645e-09
4.39122e-13
-1.77308e-13
2.31681e-09
6.43874e-14
-6.13503e-13
-3.42617e-13
2.15434e-13
7.96815e-10
-1.43065e-10
1.77669e-09
4.42193e-11
-1.86702e-09
-2.00731e-09
-1.69035e-09
5.04326e-09
-1.30333e-09
2.43853e-08
-1.34897e-09
-1.8201e-09
-5.09452e-10
3.90904e-10
-1.64631e-10
-1.51255e-08
1.92761e-08
-1.80506e-09
-2.57172e-09
4.64508e-10
-4.99679e-10
2.14153e-09
-1.3642e-09
2.8067e-08
1.86978e-08
1.95674e-09
-2.0155e-08
1.29824e-09
-6.86844e-10
-8.65684e-10
9.70393e-10
-5.70975e-10
-5.9907e-10
-9.7699e-10
1.71637e-09
-5.39725e-10
5.37919e-10
-2.22396e-10
2.06066e-10
-2.95593e-11
9.59378e-11
-5.87967e-10
-9.61765e-11
-7.82272e-11
-3.35397e-11
3.52123e-11
3.70157e-11
1.35715e-10
-5.46571e-10
5.6207e-10
-5.22874e-12
-1.03685e-12
-3.22635e-12
2.26071e-09
-2.02226e-11
2.19805e-11
-5.53766e-10
-5.57692e-10
-5.53779e-10
-5.57719e-10
2.28584e-09
-1.59607e-11
1.85294e-12
2.30251e-09
-6.19969e-12
-6.62219e-13
2.30964e-09
-3.25294e-12
-8.14388e-15
2.31331e-09
-1.63617e-12
-5.80196e-14
2.315e-09
-8.04542e-13
-9.11983e-15
2.31595e-09
-2.83725e-13
-1.80191e-14
2.31726e-09
-1.68152e-13
-5.28831e-14
2.31753e-09
-3.4056e-13
9.7501e-14
2.31739e-09
-9.42715e-13
8.6797e-17
2.31579e-09
7.92545e-13
1.50513e-13
2.31698e-09
-5.89837e-13
-9.42041e-14
2.31738e-09
1.29532e-13
8.54269e-14
2.31864e-09
-5.53559e-13
2.84e-15
2.31739e-09
2.79786e-12
-2.83414e-12
2.31561e-09
-3.47761e-13
-3.2783e-12
2.3165e-09
-3.41917e-13
2.58575e-14
2.31722e-09
-1.47487e-13
-1.28829e-15
2.3168e-09
1.2934e-13
1.14182e-12
2.3163e-09
8.99767e-13
-1.799e-13
2.31757e-09
-8.88151e-13
2.24874e-12
2.31841e-09
-4.31442e-12
1.66702e-12
2.3182e-09
1.056e-12
-1.61976e-13
2.31989e-09
-2.87947e-12
9.36594e-13
2.31776e-09
1.66543e-13
-2.69941e-12
2.31692e-09
-1.21063e-14
-7.87518e-13
2.31712e-09
1.45998e-13
-6.56394e-14
2.31736e-09
-3.16963e-13
-1.44058e-14
2.3173e-09
-1.13292e-14
-4.52743e-14
2.31712e-09
-2.58034e-14
-2.56586e-14
2.31654e-09
-4.67058e-13
-3.06095e-14
2.31671e-09
-2.0606e-13
1.44079e-13
2.31521e-09
1.21974e-12
7.70453e-13
2.31575e-09
6.84811e-13
3.39233e-13
2.31641e-09
1.05255e-12
-4.16259e-13
2.31849e-09
-2.33849e-12
1.97815e-13
2.31817e-09
1.45872e-12
7.91651e-13
2.31771e-09
8.27195e-13
-2.99003e-13
2.31668e-09
5.38537e-13
-1.79404e-13
2.31612e-09
8.95545e-13
4.51471e-14
2.31591e-09
4.18209e-13
-5.36355e-14
-2.62342e-12
1.53522e-12
-1.40576e-09
-2.26322e-09
9.64269e-10
-1.35096e-08
3.36207e-10
-1.46943e-09
-3.44395e-09
-9.089e-10
1.69199e-09
3.79409e-09
2.43811e-09
-6.8005e-09
4.45946e-09
2.3733e-09
2.33499e-10
-3.0595e-10
1.93863e-10
-1.74596e-10
-4.79567e-10
-6.71374e-10
-1.77565e-10
-1.08868e-09
-4.28696e-10
-7.9449e-09
1.44132e-08
-8.77558e-10
3.38634e-10
-6.56522e-10
-2.86016e-10
-6.40016e-09
2.11956e-10
3.43246e-10
2.84273e-10
1.00252e-09
5.64174e-09
1.80423e-09
-3.59119e-09
-2.27462e-09
-9.28522e-09
7.70507e-09
8.05633e-10
2.88821e-10
-2.77341e-10
2.55687e-10
-2.07584e-10
-8.65216e-10
-1.44471e-10
-2.05457e-10
3.09418e-11
-1.42911e-11
2.54014e-10
7.92633e-11
-1.31556e-10
5.77011e-10
-5.01822e-11
-1.18148e-12
4.37382e-13
-1.41862e-10
-1.36625e-10
-1.47653e-10
3.16114e-11
2.30343e-09
-4.52945e-11
2.46172e-11
-5.7605e-10