/*--------------------------------*- C++ -*----------------------------------*\
| =========                 |                                                 |
| \\      /  F ield         | OpenFOAM: The Open Source CFD Toolbox           |
|  \\    /   O peration     | Version:  5.0                                   |
|   \\  /    A nd           | Web:      www.OpenFOAM.org                      |
|    \\/     M anipulation  |                                                 |
\*---------------------------------------------------------------------------*/
FoamFile
{
    version     2.0;
    format      ascii;
    class       volScalarField;
    location    "2.2";
    object      rAU;
}
// * * * * * * * * * * * * * * * * * * * * * * * * * * * * * * * * * * * * * //

dimensions      [-1 3 1 0 0 0 0];

internalField   nonuniform List<scalar> 
7975
(
7.83898e-07
5.38758e-07
1.42083e-07
9.27332e-07
7.87193e-07
6.94447e-07
1.2927e-07
3.92421e-07
3.93664e-07
3.94697e-07
3.95731e-07
3.96763e-07
3.97795e-07
3.98826e-07
3.99857e-07
4.00886e-07
4.01916e-07
4.02944e-07
4.03971e-07
4.04999e-07
4.06025e-07
4.0705e-07
4.08075e-07
4.09099e-07
4.10122e-07
4.11145e-07
4.12167e-07
4.13188e-07
4.14208e-07
4.15228e-07
4.16246e-07
4.17264e-07
4.18281e-07
4.19298e-07
4.20314e-07
4.21328e-07
4.22342e-07
4.23356e-07
4.24368e-07
4.25379e-07
4.2639e-07
4.274e-07
4.28409e-07
4.29418e-07
4.30425e-07
4.31432e-07
4.32438e-07
4.33442e-07
4.34446e-07
4.36222e-07
6.44837e-07
4.71222e-07
8.67975e-07
9.63586e-07
8.81639e-07
6.33637e-07
3.51082e-08
3.92287e-07
3.93663e-07
3.94697e-07
3.95731e-07
3.96763e-07
3.97795e-07
3.98826e-07
3.99857e-07
4.00886e-07
4.01916e-07
4.02944e-07
4.03971e-07
4.04999e-07
4.06025e-07
4.0705e-07
4.08075e-07
4.09099e-07
4.10122e-07
4.11145e-07
4.12167e-07
4.13188e-07
4.14208e-07
4.15228e-07
4.16246e-07
4.17264e-07
4.18281e-07
4.19298e-07
4.20314e-07
4.21328e-07
4.22342e-07
4.23356e-07
4.24368e-07
4.25379e-07
4.2639e-07
4.274e-07
4.28409e-07
4.29418e-07
4.30425e-07
4.31432e-07
4.32438e-07
4.33443e-07
4.34446e-07
4.36222e-07
8.89658e-07
9.37829e-07
8.58734e-07
9.62415e-07
8.90986e-07
6.89509e-07
5.10712e-08
1.2987e-07
3.93455e-07
3.94697e-07
3.95731e-07
3.96763e-07
3.97795e-07
3.98826e-07
3.99857e-07
4.00886e-07
4.01916e-07
4.02944e-07
4.03971e-07
4.04999e-07
4.06025e-07
4.0705e-07
4.08075e-07
4.09099e-07
4.10122e-07
4.11145e-07
4.12167e-07
4.13188e-07
4.14208e-07
4.15228e-07
4.16246e-07
4.17264e-07
4.18281e-07
4.19298e-07
4.20314e-07
4.21328e-07
4.22342e-07
4.23356e-07
4.24368e-07
4.25379e-07
4.2639e-07
4.274e-07
4.28409e-07
4.29418e-07
4.30425e-07
4.31432e-07
4.32438e-07
4.33442e-07
4.34446e-07
4.36222e-07
9.64475e-07
8.93277e-07
7.60245e-07
8.86204e-07
8.78953e-07
6.73816e-07
6.95199e-07
1.2972e-07
3.93453e-07
3.94696e-07
3.9573e-07
3.96763e-07
3.97795e-07
3.98826e-07
3.99857e-07
4.00886e-07
4.01916e-07
4.02944e-07
4.03971e-07
4.04999e-07
4.06025e-07
4.0705e-07
4.08075e-07
4.09099e-07
4.10122e-07
4.11145e-07
4.12167e-07
4.13188e-07
4.14208e-07
4.15228e-07
4.16246e-07
4.17264e-07
4.18281e-07
4.19298e-07
4.20314e-07
4.21328e-07
4.22342e-07
4.23356e-07
4.24368e-07
4.25379e-07
4.2639e-07
4.274e-07
4.28409e-07
4.29418e-07
4.30425e-07
4.31432e-07
4.32438e-07
4.33442e-07
4.34446e-07
4.36222e-07
8.8639e-07
7.90034e-07
8.13883e-07
8.91259e-07
7.7203e-07
6.82852e-07
7.00854e-07
1.2972e-07
3.93452e-07
3.94696e-07
3.9573e-07
3.96763e-07
3.97795e-07
3.98826e-07
3.99857e-07
4.00886e-07
4.01916e-07
4.02944e-07
4.03971e-07
4.04999e-07
4.06025e-07
4.0705e-07
4.08075e-07
4.09099e-07
4.10122e-07
4.11145e-07
4.12167e-07
4.13188e-07
4.14208e-07
4.15228e-07
4.16246e-07
4.17264e-07
4.18281e-07
4.19298e-07
4.20314e-07
4.21328e-07
4.22342e-07
4.23356e-07
4.24368e-07
4.25379e-07
4.2639e-07
4.274e-07
4.28409e-07
4.29418e-07
4.30425e-07
4.31432e-07
4.32438e-07
4.33442e-07
4.34446e-07
4.36222e-07
8.04131e-07
8.86983e-07
5.04717e-07
9.29962e-07
8.72408e-07
6.87455e-07
7.00904e-07
1.29721e-07
3.93452e-07
3.94696e-07
3.9573e-07
3.96763e-07
3.97795e-07
3.98826e-07
3.99857e-07
4.00886e-07
4.01916e-07
4.02944e-07
4.03971e-07
4.04999e-07
4.06025e-07
4.0705e-07
4.08075e-07
4.09099e-07
4.10122e-07
4.11145e-07
4.12167e-07
4.13188e-07
4.14208e-07
4.15227e-07
4.16246e-07
4.17264e-07
4.18281e-07
4.19298e-07
4.20314e-07
4.21328e-07
4.22342e-07
4.23356e-07
4.24368e-07
4.25379e-07
4.2639e-07
4.274e-07
4.28409e-07
4.29418e-07
4.30425e-07
4.31432e-07
4.32438e-07
4.33442e-07
4.34446e-07
4.36222e-07
8.88405e-07
8.84193e-07
7.26448e-07
6.61014e-07
8.88544e-07
6.8363e-07
7.00015e-07
1.29724e-07
3.93453e-07
3.94697e-07
3.9573e-07
3.96763e-07
3.97795e-07
3.98826e-07
3.99857e-07
4.00886e-07
4.01916e-07
4.02944e-07
4.03971e-07
4.04999e-07
4.06025e-07
4.0705e-07
4.08075e-07
4.09099e-07
4.10122e-07
4.11145e-07
4.12167e-07
4.13188e-07
4.14208e-07
4.15228e-07
4.16246e-07
4.17264e-07
4.18281e-07
4.19298e-07
4.20314e-07
4.21328e-07
4.22342e-07
4.23356e-07
4.24368e-07
4.25379e-07
4.2639e-07
4.274e-07
4.28409e-07
4.29418e-07
4.30425e-07
4.31432e-07
4.32438e-07
4.33442e-07
4.34446e-07
4.36222e-07
8.91929e-07
1.70945e-07
7.76454e-07
6.67572e-07
7.14039e-07
4.77332e-07
6.13944e-07
1.2969e-07
3.93454e-07
3.94697e-07
3.95731e-07
3.96763e-07
3.97795e-07
3.98826e-07
3.99857e-07
4.00886e-07
4.01916e-07
4.02944e-07
4.03971e-07
4.04999e-07
4.06025e-07
4.0705e-07
4.08075e-07
4.09099e-07
4.10122e-07
4.11145e-07
4.12167e-07
4.13188e-07
4.14208e-07
4.15228e-07
4.16246e-07
4.17264e-07
4.18281e-07
4.19298e-07
4.20314e-07
4.21328e-07
4.22342e-07
4.23356e-07
4.24368e-07
4.25379e-07
4.2639e-07
4.274e-07
4.28409e-07
4.29418e-07
4.30425e-07
4.31432e-07
4.32438e-07
4.33442e-07
4.34446e-07
4.36222e-07
9.60144e-07
9.36416e-07
8.83726e-07
6.6679e-07
8.50785e-07
6.8018e-07
4.43349e-08
3.92286e-07
3.93663e-07
3.94697e-07
3.95731e-07
3.96763e-07
3.97795e-07
3.98826e-07
3.99857e-07
4.00886e-07
4.01916e-07
4.02944e-07
4.03971e-07
4.04999e-07
4.06025e-07
4.0705e-07
4.08075e-07
4.09099e-07
4.10122e-07
4.11145e-07
4.12167e-07
4.13188e-07
4.14208e-07
4.15228e-07
4.16246e-07
4.17264e-07
4.18281e-07
4.19298e-07
4.20314e-07
4.21328e-07
4.22342e-07
4.23356e-07
4.24368e-07
4.25379e-07
4.2639e-07
4.274e-07
4.28409e-07
4.29418e-07
4.30425e-07
4.31432e-07
4.32438e-07
4.33443e-07
4.34446e-07
4.36222e-07
8.86545e-07
8.84786e-07
7.15067e-07
4.82269e-07
7.90466e-07
6.96506e-07
3.50926e-08
3.92421e-07
3.93663e-07
3.94697e-07
3.95731e-07
3.96763e-07
3.97795e-07
3.98826e-07
3.99857e-07
4.00886e-07
4.01916e-07
4.02944e-07
4.03971e-07
4.04999e-07
4.06025e-07
4.0705e-07
4.08075e-07
4.09099e-07
4.10122e-07
4.11145e-07
4.12167e-07
4.13188e-07
4.14208e-07
4.15228e-07
4.16246e-07
4.17264e-07
4.18281e-07
4.19298e-07
4.20314e-07
4.21328e-07
4.22342e-07
4.23356e-07
4.24368e-07
4.25379e-07
4.2639e-07
4.274e-07
4.28409e-07
4.29418e-07
4.30425e-07
4.31432e-07
4.32438e-07
4.33442e-07
4.34446e-07
4.36222e-07
2.708e-07
4.53104e-07
1.69208e-07
7.95479e-07
7.6782e-07
7.46204e-07
1.83347e-07
5.04899e-07
5.06388e-07
5.07528e-07
5.08666e-07
5.09803e-07
5.10939e-07
5.12072e-07
5.13205e-07
5.14335e-07
5.15464e-07
5.16591e-07
5.17718e-07
5.18841e-07
5.19964e-07
5.21085e-07
5.22204e-07
5.23322e-07
5.24438e-07
5.25552e-07
5.26665e-07
5.27776e-07
5.28885e-07
5.29993e-07
5.31099e-07
5.32203e-07
5.33307e-07
5.34408e-07
5.35507e-07
5.36605e-07
5.37702e-07
5.38796e-07
5.39889e-07
5.4098e-07
5.42069e-07
5.43157e-07
5.44244e-07
5.45328e-07
5.46411e-07
5.47493e-07
5.48571e-07
5.4965e-07
5.50726e-07
5.53041e-07
4.42998e-07
5.59845e-07
6.77587e-07
8.4263e-07
9.25351e-07
6.91336e-07
5.18278e-08
5.04676e-07
5.06387e-07
5.07528e-07
5.08666e-07
5.09803e-07
5.10939e-07
5.12072e-07
5.13204e-07
5.14335e-07
5.15464e-07
5.16591e-07
5.17718e-07
5.18841e-07
5.19964e-07
5.21085e-07
5.22204e-07
5.23321e-07
5.24438e-07
5.25552e-07
5.26665e-07
5.27776e-07
5.28885e-07
5.29993e-07
5.31099e-07
5.32203e-07
5.33306e-07
5.34408e-07
5.35507e-07
5.36605e-07
5.37702e-07
5.38795e-07
5.39889e-07
5.4098e-07
5.42069e-07
5.43158e-07
5.44244e-07
5.45328e-07
5.46411e-07
5.47493e-07
5.48571e-07
5.4965e-07
5.50726e-07
5.53041e-07
9.13536e-07
8.29276e-07
4.19584e-07
8.62841e-07
8.89826e-07
7.16877e-07
7.5568e-08
1.84251e-07
5.06041e-07
5.07528e-07
5.08666e-07
5.09803e-07
5.10939e-07
5.12072e-07
5.13204e-07
5.14335e-07
5.15464e-07
5.16591e-07
5.17718e-07
5.18841e-07
5.19964e-07
5.21085e-07
5.22203e-07
5.23321e-07
5.24438e-07
5.25552e-07
5.26665e-07
5.27776e-07
5.28885e-07
5.29993e-07
5.31099e-07
5.32203e-07
5.33306e-07
5.34408e-07
5.35507e-07
5.36605e-07
5.37702e-07
5.38796e-07
5.39889e-07
5.4098e-07
5.42069e-07
5.43157e-07
5.44244e-07
5.45328e-07
5.46411e-07
5.47493e-07
5.48571e-07
5.4965e-07
5.50726e-07
5.53041e-07
8.68482e-07
8.60735e-07
8.74011e-07
9.08117e-07
9.23685e-07
7.07714e-07
7.68939e-07
1.83948e-07
5.06037e-07
5.07526e-07
5.08665e-07
5.09803e-07
5.10938e-07
5.12072e-07
5.13204e-07
5.14335e-07
5.15464e-07
5.16591e-07
5.17718e-07
5.18841e-07
5.19964e-07
5.21085e-07
5.22204e-07
5.23322e-07
5.24438e-07
5.25552e-07
5.26665e-07
5.27776e-07
5.28885e-07
5.29993e-07
5.31099e-07
5.32203e-07
5.33307e-07
5.34408e-07
5.35507e-07
5.36605e-07
5.37702e-07
5.38796e-07
5.39889e-07
5.4098e-07
5.42069e-07
5.43157e-07
5.44244e-07
5.45328e-07
5.46411e-07
5.47493e-07
5.48571e-07
5.4965e-07
5.50726e-07
5.53041e-07
6.26985e-07
7.7836e-07
6.78927e-07
7.02884e-07
8.10808e-07
6.88496e-07
7.76857e-07
1.83945e-07
5.06034e-07
5.07525e-07
5.08664e-07
5.09802e-07
5.10938e-07
5.12072e-07
5.13204e-07
5.14335e-07
5.15464e-07
5.16591e-07
5.17718e-07
5.18841e-07
5.19964e-07
5.21085e-07
5.22204e-07
5.23322e-07
5.24438e-07
5.25552e-07
5.26665e-07
5.27776e-07
5.28885e-07
5.29993e-07
5.31099e-07
5.32203e-07
5.33307e-07
5.34408e-07
5.35507e-07
5.36605e-07
5.37702e-07
5.38796e-07
5.39889e-07
5.4098e-07
5.42069e-07
5.43157e-07
5.44244e-07
5.45328e-07
5.46411e-07
5.47493e-07
5.48571e-07
5.4965e-07
5.50726e-07
5.53041e-07
3.63559e-07
3.05517e-07
7.49767e-07
8.18346e-07
8.26695e-07
7.43923e-07
7.75529e-07
1.83949e-07
5.06035e-07
5.07525e-07
5.08664e-07
5.09802e-07
5.10938e-07
5.12072e-07
5.13204e-07
5.14335e-07
5.15464e-07
5.16591e-07
5.17717e-07
5.18841e-07
5.19964e-07
5.21085e-07
5.22204e-07
5.23322e-07
5.24438e-07
5.25552e-07
5.26665e-07
5.27776e-07
5.28885e-07
5.29993e-07
5.311e-07
5.32203e-07
5.33307e-07
5.34408e-07
5.35507e-07
5.36605e-07
5.37702e-07
5.38796e-07
5.39889e-07
5.4098e-07
5.42069e-07
5.43157e-07
5.44244e-07
5.45328e-07
5.46411e-07
5.47493e-07
5.48571e-07
5.4965e-07
5.50726e-07
5.53041e-07
9.2998e-07
9.10231e-07
5.58746e-07
8.96565e-07
8.0608e-07
7.46185e-07
7.72974e-07
1.83948e-07
5.06038e-07
5.07527e-07
5.08665e-07
5.09803e-07
5.10939e-07
5.12072e-07
5.13204e-07
5.14335e-07
5.15464e-07
5.16591e-07
5.17717e-07
5.18841e-07
5.19964e-07
5.21085e-07
5.22204e-07
5.23322e-07
5.24438e-07
5.25552e-07
5.26665e-07
5.27776e-07
5.28885e-07
5.29993e-07
5.31099e-07
5.32203e-07
5.33307e-07
5.34408e-07
5.35507e-07
5.36605e-07
5.37702e-07
5.38796e-07
5.39889e-07
5.4098e-07
5.42069e-07
5.43157e-07
5.44244e-07
5.45328e-07
5.46411e-07
5.47493e-07
5.48571e-07
5.4965e-07
5.50726e-07
5.53041e-07
9.61693e-07
8.22088e-07
8.33526e-07
6.15441e-07
8.6621e-07
6.05162e-07
6.59401e-07
1.83949e-07
5.0604e-07
5.07528e-07
5.08666e-07
5.09803e-07
5.10939e-07
5.12072e-07
5.13204e-07
5.14335e-07
5.15464e-07
5.16591e-07
5.17718e-07
5.18841e-07
5.19964e-07
5.21085e-07
5.22204e-07
5.23322e-07
5.24438e-07
5.25552e-07
5.26665e-07
5.27776e-07
5.28885e-07
5.29993e-07
5.31099e-07
5.32203e-07
5.33306e-07
5.34408e-07
5.35507e-07
5.36605e-07
5.37702e-07
5.38796e-07
5.39889e-07
5.4098e-07
5.42069e-07
5.43157e-07
5.44244e-07
5.45328e-07
5.46411e-07
5.47493e-07
5.48571e-07
5.4965e-07
5.50726e-07
5.53041e-07
9.694e-07
8.55079e-07
9.04383e-07
4.89843e-07
8.72384e-07
6.66868e-07
6.55515e-08
5.04675e-07
5.06387e-07
5.07528e-07
5.08666e-07
5.09803e-07
5.10939e-07
5.12072e-07
5.13204e-07
5.14335e-07
5.15464e-07
5.16591e-07
5.17718e-07
5.18841e-07
5.19964e-07
5.21085e-07
5.22204e-07
5.23322e-07
5.24438e-07
5.25552e-07
5.26665e-07
5.27776e-07
5.28885e-07
5.29993e-07
5.31099e-07
5.32203e-07
5.33306e-07
5.34408e-07
5.35507e-07
5.36605e-07
5.37702e-07
5.38796e-07
5.39889e-07
5.4098e-07
5.42069e-07
5.43157e-07
5.44244e-07
5.45328e-07
5.46411e-07
5.47493e-07
5.48571e-07
5.4965e-07
5.50726e-07
5.53041e-07
9.05421e-07
8.54062e-07
4.58432e-07
3.99379e-07
5.05028e-07
7.67549e-07
5.17947e-08
5.04898e-07
5.06388e-07
5.07528e-07
5.08666e-07
5.09803e-07
5.10939e-07
5.12072e-07
5.13204e-07
5.14335e-07
5.15464e-07
5.16591e-07
5.17718e-07
5.18841e-07
5.19964e-07
5.21085e-07
5.22204e-07
5.23322e-07
5.24438e-07
5.25552e-07
5.26665e-07
5.27776e-07
5.28885e-07
5.29993e-07
5.31099e-07
5.32203e-07
5.33306e-07
5.34408e-07
5.35507e-07
5.36605e-07
5.37702e-07
5.38796e-07
5.39889e-07
5.4098e-07
5.42069e-07
5.43157e-07
5.44244e-07
5.45328e-07
5.46411e-07
5.47493e-07
5.48571e-07
5.4965e-07
5.50726e-07
5.53041e-07
4.08462e-07
7.17777e-07
3.11511e-07
9.26521e-07
7.75824e-07
7.27151e-07
1.83351e-07
3.92421e-07
3.93663e-07
3.94697e-07
3.95731e-07
3.96763e-07
3.97795e-07
3.98826e-07
3.99857e-07
4.00886e-07
4.01916e-07
4.02944e-07
4.03971e-07
4.04999e-07
4.06025e-07
4.0705e-07
4.08075e-07
4.09099e-07
4.10122e-07
4.11145e-07
4.12167e-07
4.13188e-07
4.14208e-07
4.15227e-07
4.16246e-07
4.17264e-07
4.18281e-07
4.19298e-07
4.20314e-07
4.21328e-07
4.22342e-07
4.23356e-07
4.24368e-07
4.25379e-07
4.2639e-07
4.274e-07
4.28409e-07
4.29418e-07
4.30425e-07
4.31432e-07
4.32438e-07
4.33442e-07
4.34446e-07
4.36222e-07
5.69206e-07
4.89025e-07
6.32209e-07
8.79691e-07
9.31903e-07
7.71611e-07
5.18278e-08
3.92287e-07
3.93663e-07
3.94697e-07
3.95731e-07
3.96763e-07
3.97795e-07
3.98826e-07
3.99857e-07
4.00886e-07
4.01916e-07
4.02944e-07
4.03971e-07
4.04999e-07
4.06025e-07
4.0705e-07
4.08075e-07
4.09099e-07
4.10122e-07
4.11145e-07
4.12167e-07
4.13188e-07
4.14208e-07
4.15228e-07
4.16246e-07
4.17264e-07
4.18281e-07
4.19298e-07
4.20314e-07
4.21328e-07
4.22342e-07
4.23356e-07
4.24368e-07
4.25379e-07
4.2639e-07
4.274e-07
4.28409e-07
4.29418e-07
4.30425e-07
4.31431e-07
4.32438e-07
4.33442e-07
4.34446e-07
4.36222e-07
8.90952e-07
8.50054e-07
4.0945e-07
4.04364e-07
8.63755e-07
7.44508e-07
7.5456e-08
1.84256e-07
3.93454e-07
3.94697e-07
3.95731e-07
3.96763e-07
3.97795e-07
3.98826e-07
3.99857e-07
4.00886e-07
4.01916e-07
4.02944e-07
4.03971e-07
4.04999e-07
4.06025e-07
4.0705e-07
4.08075e-07
4.09099e-07
4.10122e-07
4.11145e-07
4.12167e-07
4.13188e-07
4.14208e-07
4.15227e-07
4.16246e-07
4.17264e-07
4.18281e-07
4.19298e-07
4.20314e-07
4.21328e-07
4.22342e-07
4.23356e-07
4.24368e-07
4.25379e-07
4.2639e-07
4.274e-07
4.28409e-07
4.29418e-07
4.30425e-07
4.31431e-07
4.32438e-07
4.33442e-07
4.34446e-07
4.36222e-07
8.46328e-07
7.91684e-07
6.1117e-07
7.73664e-07
9.21093e-07
7.00085e-07
7.69453e-07
1.83953e-07
3.93453e-07
3.94696e-07
3.9573e-07
3.96763e-07
3.97795e-07
3.98826e-07
3.99857e-07
4.00886e-07
4.01916e-07
4.02944e-07
4.03971e-07
4.04999e-07
4.06025e-07
4.0705e-07
4.08075e-07
4.09099e-07
4.10122e-07
4.11145e-07
4.12167e-07
4.13188e-07
4.14208e-07
4.15227e-07
4.16246e-07
4.17264e-07
4.18281e-07
4.19298e-07
4.20314e-07
4.21328e-07
4.22342e-07
4.23356e-07
4.24368e-07
4.25379e-07
4.2639e-07
4.274e-07
4.28409e-07
4.29418e-07
4.30425e-07
4.31431e-07
4.32438e-07
4.33442e-07
4.34446e-07
4.36222e-07
5.21518e-07
4.30927e-07
5.38359e-07
5.40557e-07
8.69566e-07
6.95134e-07
7.77138e-07
1.83951e-07
3.93452e-07
3.94696e-07
3.9573e-07
3.96763e-07
3.97794e-07
3.98826e-07
3.99856e-07
4.00886e-07
4.01916e-07
4.02944e-07
4.03971e-07
4.04999e-07
4.06025e-07
4.0705e-07
4.08075e-07
4.09099e-07
4.10122e-07
4.11145e-07
4.12167e-07
4.13188e-07
4.14208e-07
4.15228e-07
4.16246e-07
4.17264e-07
4.18281e-07
4.19298e-07
4.20314e-07
4.21328e-07
4.22342e-07
4.23356e-07
4.24368e-07
4.25379e-07
4.2639e-07
4.274e-07
4.28409e-07
4.29418e-07
4.30425e-07
4.31431e-07
4.32438e-07
4.33442e-07
4.34446e-07
4.36222e-07
7.33968e-07
8.79318e-07
8.81484e-07
8.01405e-07
5.91004e-07
6.86603e-07
7.74971e-07
1.83953e-07
3.93452e-07
3.94696e-07
3.9573e-07
3.96763e-07
3.97794e-07
3.98826e-07
3.99856e-07
4.00886e-07
4.01916e-07
4.02944e-07
4.03971e-07
4.04999e-07
4.06025e-07
4.0705e-07
4.08075e-07
4.09099e-07
4.10122e-07
4.11145e-07
4.12167e-07
4.13188e-07
4.14208e-07
4.15227e-07
4.16246e-07
4.17264e-07
4.18281e-07
4.19298e-07
4.20314e-07
4.21328e-07
4.22342e-07
4.23356e-07
4.24368e-07
4.25379e-07
4.2639e-07
4.274e-07
4.28409e-07
4.29418e-07
4.30425e-07
4.31432e-07
4.32438e-07
4.33442e-07
4.34446e-07
4.36222e-07
8.90433e-07
8.69075e-07
4.92352e-07
8.16248e-07
3.79461e-07
7.54964e-07
7.73418e-07
1.83953e-07
3.93453e-07
3.94697e-07
3.9573e-07
3.96763e-07
3.97795e-07
3.98826e-07
3.99857e-07
4.00886e-07
4.01916e-07
4.02944e-07
4.03971e-07
4.04999e-07
4.06025e-07
4.0705e-07
4.08075e-07
4.09099e-07
4.10122e-07
4.11145e-07
4.12167e-07
4.13188e-07
4.14208e-07
4.15227e-07
4.16246e-07
4.17264e-07
4.18281e-07
4.19298e-07
4.20314e-07
4.21328e-07
4.22342e-07
4.23356e-07
4.24368e-07
4.25379e-07
4.2639e-07
4.274e-07
4.28409e-07
4.29418e-07
4.30425e-07
4.31432e-07
4.32438e-07
4.33442e-07
4.34446e-07
4.36222e-07
9.61883e-07
8.46475e-07
8.21548e-07
7.83003e-07
8.96656e-07
7.15155e-07
6.63876e-07
1.83954e-07
3.93454e-07
3.94697e-07
3.95731e-07
3.96763e-07
3.97795e-07
3.98826e-07
3.99857e-07
4.00886e-07
4.01916e-07
4.02944e-07
4.03971e-07
4.04999e-07
4.06025e-07
4.0705e-07
4.08075e-07
4.09099e-07
4.10122e-07
4.11145e-07
4.12167e-07
4.13188e-07
4.14208e-07
4.15227e-07
4.16246e-07
4.17264e-07
4.18281e-07
4.19298e-07
4.20314e-07
4.21328e-07
4.22342e-07
4.23356e-07
4.24368e-07
4.25379e-07
4.2639e-07
4.274e-07
4.28409e-07
4.29418e-07
4.30425e-07
4.31432e-07
4.32438e-07
4.33442e-07
4.34446e-07
4.36222e-07
9.63054e-07
9.36769e-07
8.92907e-07
9.05918e-07
8.24909e-07
6.90929e-07
6.54599e-08
3.92286e-07
3.93663e-07
3.94697e-07
3.95731e-07
3.96763e-07
3.97795e-07
3.98826e-07
3.99857e-07
4.00886e-07
4.01916e-07
4.02944e-07
4.03971e-07
4.04999e-07
4.06025e-07
4.0705e-07
4.08075e-07
4.09099e-07
4.10122e-07
4.11145e-07
4.12167e-07
4.13188e-07
4.14208e-07
4.15227e-07
4.16246e-07
4.17264e-07
4.18281e-07
4.19298e-07
4.20314e-07
4.21328e-07
4.22342e-07
4.23356e-07
4.24368e-07
4.25379e-07
4.2639e-07
4.274e-07
4.28409e-07
4.29418e-07
4.30425e-07
4.31431e-07
4.32438e-07
4.33442e-07
4.34446e-07
4.36222e-07
8.93116e-07
8.81296e-07
7.61093e-07
7.08637e-07
7.07092e-07
7.28553e-07
5.17941e-08
3.92421e-07
3.93663e-07
3.94697e-07
3.95731e-07
3.96763e-07
3.97795e-07
3.98826e-07
3.99857e-07
4.00886e-07
4.01916e-07
4.02944e-07
4.03971e-07
4.04999e-07
4.06025e-07
4.0705e-07
4.08075e-07
4.09099e-07
4.10122e-07
4.11145e-07
4.12167e-07
4.13188e-07
4.14208e-07
4.15227e-07
4.16246e-07
4.17264e-07
4.18281e-07
4.19298e-07
4.20314e-07
4.21328e-07
4.22342e-07
4.23356e-07
4.24368e-07
4.25379e-07
4.2639e-07
4.274e-07
4.28409e-07
4.29418e-07
4.30425e-07
4.31432e-07
4.32438e-07
4.33442e-07
4.34446e-07
4.36222e-07
3.55736e-08
5.52531e-07
3.60739e-08
7.529e-07
5.26595e-08
6.40618e-07
5.34494e-08
3.90763e-08
6.89679e-07
1.26668e-07
6.79134e-07
5.79391e-08
7.17405e-07
1.78814e-07
4.43065e-07
6.91793e-07
7.00686e-07
7.2229e-07
5.2368e-07
7.56828e-07
7.76351e-07
7.0065e-07
6.8187e-07
7.00525e-07
7.177e-07
7.7486e-07
6.90422e-07
7.72481e-07
6.98453e-07
6.69688e-07
6.99945e-07
6.95513e-07
7.72917e-07
7.56315e-07
7.76282e-07
6.99406e-07
6.71291e-07
6.99898e-07
7.54872e-07
7.74235e-07
7.44995e-07
7.74892e-07
6.99991e-07
4.32708e-07
7.00931e-07
7.3288e-07
7.72589e-07
4.88773e-07
7.77201e-07
7.00585e-07
6.48498e-07
6.90838e-07
5.77587e-07
7.76805e-07
6.23117e-07
7.6358e-07
2.69737e-07
6.15112e-07
4.95812e-08
6.91187e-07
3.52148e-07
6.3853e-07
7.3078e-08
4.13704e-08
6.91248e-07
3.52273e-08
7.68186e-07
6.10551e-08
7.03666e-07
5.20486e-08
5.27067e-08
6.52087e-07
5.35094e-08
7.38093e-07
5.27399e-08
7.39849e-07
5.35092e-08
5.7981e-08
7.28588e-07
1.7896e-07
7.41448e-07
5.81209e-08
7.219e-07
1.79055e-07
5.20748e-07
7.58029e-07
7.76038e-07
7.30619e-07
5.20759e-07
7.46435e-07
7.76154e-07
7.75202e-07
6.78114e-07
7.71049e-07
7.0332e-07
7.74971e-07
6.94583e-07
7.74084e-07
7.74175e-07
7.45579e-07
7.74562e-07
6.89099e-07
7.72199e-07
7.13513e-07
7.76174e-07
7.7429e-07
7.48259e-07
7.74791e-07
7.27044e-07
7.74584e-07
7.38483e-07
7.76871e-07
7.70592e-07
4.86192e-07
7.7721e-07
7.17629e-07
7.69131e-07
5.22269e-07
7.75897e-07
7.7665e-07
6.13138e-07
7.6328e-07
7.13213e-07
7.7692e-07
6.49617e-07
7.61586e-07
3.51825e-07
5.94367e-07
7.32342e-08
6.62497e-07
3.51808e-07
6.14267e-07
7.30335e-08
6.10547e-08
7.14966e-07
5.20768e-08
7.2543e-07
6.10102e-08
7.14061e-07
5.20738e-08
5.26903e-08
7.15107e-07
5.34521e-08
6.67426e-07
3.55794e-08
6.92694e-07
3.6089e-08
5.81945e-08
7.26526e-07
1.79128e-07
6.92403e-07
3.95032e-08
6.82995e-07
1.26764e-07
5.23049e-07
7.58884e-07
7.76438e-07
6.71613e-07
4.41391e-07
6.88286e-07
7.00816e-07
7.74165e-07
6.88856e-07
7.73426e-07
6.78361e-07
6.9784e-07
6.57774e-07
7.00754e-07
7.71903e-07
6.95807e-07
7.7553e-07
6.86897e-07
6.99292e-07
6.38267e-07
6.99656e-07
7.74909e-07
7.04933e-07
7.76506e-07
6.68066e-07
7.00084e-07
5.43089e-07
7.005e-07
7.68138e-07
6.20174e-07
7.7631e-07
6.85409e-07
6.99784e-07
5.64232e-07
7.00155e-07
7.76907e-07
6.76521e-07
7.64018e-07
6.73511e-07
7.00681e-07
6.6646e-07
6.90423e-07
3.51888e-07
6.41209e-07
7.29831e-08
6.83524e-07
2.67696e-07
6.52077e-07
4.93642e-08
6.08591e-08
7.14459e-07
5.20442e-08
6.25302e-07
4.12116e-08
6.70763e-07
3.52225e-08
8.89062e-07
7.88882e-07
4.9665e-07
7.87791e-07
9.09561e-07
8.48517e-07
6.45201e-07
7.64772e-07
6.94173e-07
6.58473e-07
7.53744e-07
7.43892e-07
6.91144e-07
7.68438e-07
1.29658e-07
1.29216e-07
1.29658e-07
1.8335e-07
1.84016e-07
1.83243e-07
1.84017e-07
8.96972e-07
8.76575e-07
8.72158e-07
8.53481e-07
9.13407e-07
8.9619e-07
8.73407e-07
7.28673e-07
6.96129e-07
5.36184e-07
7.04567e-07
7.68399e-07
6.269e-07
6.77731e-07
1.29567e-07
3.82067e-08
1.29567e-07
5.18277e-08
1.83833e-07
5.65262e-08
1.83833e-07
8.97716e-07
8.97019e-07
8.71763e-07
8.87257e-07
9.09166e-07
9.05041e-07
9.02518e-07
7.72984e-07
6.9629e-07
6.32915e-07
7.58193e-07
7.7119e-07
6.62565e-07
6.97374e-07
1.29421e-07
6.63735e-07
3.52761e-08
7.54325e-08
1.83541e-07
6.96198e-07
5.19794e-08
8.57693e-07
8.61225e-07
8.95484e-07
8.86533e-07
8.56069e-07
8.20741e-07
8.75166e-07
4.70435e-07
6.95647e-07
6.80185e-07
7.35793e-07
7.67703e-07
7.27339e-07
3.77527e-07
3.52767e-08
6.99307e-07
3.52851e-08
7.69156e-07
5.19811e-08
7.72574e-07
5.19998e-08
7.99722e-07
6.35787e-07
8.53892e-07
8.49797e-07
7.9776e-07
7.68048e-07
8.68716e-07
7.5567e-07
6.9856e-07
5.43497e-07
7.30778e-07
7.71539e-07
5.95587e-07
6.91025e-07
3.52888e-08
7.00747e-07
3.53485e-08
7.7706e-07
5.20079e-08
7.75493e-07
5.22135e-08
8.31446e-07
8.63321e-07
8.10261e-07
8.57438e-07
7.32151e-07
6.85745e-07
8.79947e-07
7.53548e-07
6.95419e-07
5.8806e-07
7.353e-07
7.66096e-07
7.26537e-07
6.92914e-07
3.54e-08
7.00634e-07
3.52885e-08
7.75933e-07
5.23412e-08
7.76409e-07
5.20076e-08
6.33015e-07
6.56493e-07
1.97635e-07
8.73981e-07
8.25229e-07
8.49555e-07
6.33463e-07
7.69961e-07
6.96532e-07
5.86536e-07
7.5321e-07
7.6908e-07
6.76699e-07
6.97154e-07
3.52851e-08
6.95063e-07
3.52767e-08
7.70827e-07
5.20013e-08
7.69026e-07
5.19809e-08
3.36081e-07
8.61135e-07
8.78855e-07
7.94174e-07
7.29983e-07
8.82702e-07
8.98682e-07
7.10195e-07
6.9749e-07
5.49932e-07
5.68663e-07
7.73648e-07
5.907e-07
6.70171e-07
3.52647e-08
6.1368e-08
1.29422e-07
6.62683e-07
5.19792e-08
8.95003e-08
1.83541e-07
7.96004e-07
8.20767e-07
7.82461e-07
8.94449e-07
8.65435e-07
8.53587e-07
8.78511e-07
7.64748e-07
6.93386e-07
6.89802e-07
7.25667e-07
7.59929e-07
7.37277e-07
6.97049e-07
1.29566e-07
3.51655e-08
1.29567e-07
6.54785e-08
1.83832e-07
5.18078e-08
1.83832e-07
9.00665e-07
8.7715e-07
8.86602e-07
6.74939e-07
9.13485e-07
9.17009e-07
9.22996e-07
7.64094e-07
6.9758e-07
6.59173e-07
7.4986e-07
7.71388e-07
6.85323e-07
6.95031e-07
1.29567e-07
1.29214e-07
1.29658e-07
5.17946e-08
1.83833e-07
1.83239e-07
1.84017e-07
8.90462e-07
8.32986e-07
7.18815e-07
7.29153e-07
8.65131e-07
8.60963e-07
8.55208e-07
7.44367e-07
7.65985e-07
7.51465e-07
7.41837e-07
7.52894e-07
7.54357e-07
7.65237e-07
1.84012e-07
1.83242e-07
1.84012e-07
1.83348e-07
1.84012e-07
1.83242e-07
1.84012e-07
9.17101e-07
9.10309e-07
9.1195e-07
8.65578e-07
9.2849e-07
8.3803e-07
8.9041e-07
6.74606e-07
7.67572e-07
6.84398e-07
7.17234e-07
6.72733e-07
7.64294e-07
6.66097e-07
1.83828e-07
5.65775e-08
1.83828e-07
5.18276e-08
1.83828e-07
5.65759e-08
1.83828e-07
8.54878e-07
9.06994e-07
9.15039e-07
9.18406e-07
9.19109e-07
8.59975e-07
9.3111e-07
7.62952e-07
7.60424e-07
7.15754e-07
6.87792e-07
7.68414e-07
7.6444e-07
7.11861e-07
1.83537e-07
6.8817e-07
5.19789e-08
7.55814e-08
1.83538e-07
6.88226e-07
5.1979e-08
8.95924e-07
9.26175e-07
9.12579e-07
8.63872e-07
7.93023e-07
8.70447e-07
8.49588e-07
4.93021e-07
7.26112e-07
6.5587e-07
6.89425e-07
4.70816e-07
7.07632e-07
7.1343e-07
5.19807e-08
7.73626e-07
5.19991e-08
7.68838e-07
5.19807e-08
7.72459e-07
5.19997e-08
9.03101e-07
6.98924e-07
6.51324e-07
8.93724e-07
7.94513e-07
4.25503e-07
3.685e-07
7.31241e-07
7.5098e-07
6.91533e-07
7.04201e-07
7.28429e-07
7.49363e-07
6.16277e-07
5.2008e-08
7.75391e-07
5.22335e-08
7.76808e-07
5.2008e-08
7.75822e-07
5.22335e-08
4.91304e-07
4.61979e-07
4.17585e-07
4.97412e-07
2.38074e-07
4.13581e-07
4.93778e-07
7.34085e-07
7.62615e-07
6.88434e-07
7.52475e-07
7.36485e-07
7.61047e-07
6.49735e-07
5.2371e-08
7.74862e-07
5.20077e-08
7.74578e-07
5.23695e-08
7.75138e-07
5.20074e-08
8.31607e-07
8.72429e-07
7.44066e-07
3.62441e-07
6.90839e-07
9.03858e-07
8.22956e-07
7.62909e-07
7.7116e-07
6.37012e-07
7.06599e-07
7.6094e-07
7.66488e-07
6.85228e-07
5.20011e-08
7.68847e-07
5.19805e-08
7.74931e-07
5.20011e-08
7.69035e-07
5.19806e-08
7.59788e-07
8.15772e-07
9.23043e-07
8.95623e-07
8.47831e-07
9.12159e-07
8.50229e-07
6.95717e-07
7.57816e-07
4.81129e-07
6.56493e-07
6.67108e-07
7.61724e-07
4.47235e-07
5.19786e-08
8.95522e-08
1.83536e-07
6.6006e-07
5.19786e-08
8.94963e-08
1.83537e-07
8.55905e-07
4.19322e-07
8.06509e-07
8.25634e-07
8.15837e-07
8.21837e-07
7.83686e-07
7.58389e-07
7.43497e-07
7.7246e-07
6.3116e-07
7.5472e-07
7.36707e-07
7.77347e-07
1.83827e-07
5.18085e-08
1.83827e-07
6.55313e-08
1.83827e-07
5.18084e-08
1.83828e-07
8.50389e-07
9.07744e-07
8.93551e-07
6.70515e-07
8.80341e-07
8.6309e-07
8.67878e-07
7.614e-07
7.67826e-07
7.68014e-07
6.96665e-07
7.62287e-07
7.66835e-07
7.67564e-07
1.83828e-07
1.83236e-07
1.84012e-07
5.17947e-08
1.83828e-07
1.83235e-07
1.84012e-07
8.57875e-07
8.93821e-07
8.91094e-07
7.47966e-07
8.06064e-07
8.16748e-07
8.21586e-07
7.62377e-07
7.62374e-07
7.64059e-07
7.38598e-07
7.54218e-07
7.62677e-07
7.60911e-07
1.84016e-07
1.83243e-07
1.84017e-07
1.2927e-07
1.29658e-07
1.29216e-07
1.29658e-07
8.83507e-07
8.9919e-07
9.13468e-07
8.99464e-07
8.86587e-07
8.81273e-07
8.73785e-07
7.01702e-07
7.64787e-07
6.56028e-07
7.70208e-07
6.84306e-07
7.66136e-07
6.61035e-07
1.83833e-07
5.6509e-08
1.83833e-07
3.51625e-08
1.29567e-07
3.82078e-08
1.29567e-07
8.79542e-07
9.25262e-07
8.84894e-07
8.58438e-07
8.78233e-07
8.84215e-07
8.83216e-07
7.65764e-07
7.7191e-07
7.51141e-07
7.50782e-07
7.66191e-07
7.68774e-07
7.23141e-07
1.83541e-07
6.94934e-07
5.19794e-08
5.10955e-08
1.29422e-07
6.61199e-07
3.52762e-08
7.09342e-07
9.24335e-07
8.9798e-07
8.73977e-07
5.8187e-07
8.76764e-07
8.81691e-07
4.95697e-07
7.44145e-07
3.59797e-07
7.15744e-07
4.62193e-07
7.31453e-07
2.99684e-07
5.1981e-08
7.73926e-07
5.19994e-08
6.95325e-07
3.52758e-08
7.00223e-07
3.52853e-08
9.14182e-07
4.64494e-07
3.80869e-07
8.67832e-07
8.67711e-07
3.5272e-07
5.45345e-07
7.47706e-07
7.53832e-07
6.69512e-07
7.45053e-07
7.53794e-07
7.5827e-07
6.85202e-07
5.20081e-08
7.75745e-07
5.22135e-08
7.00754e-07
3.52888e-08
7.00753e-07
3.53483e-08
2.25846e-07
4.73765e-07
2.74809e-07
6.48573e-07
6.24218e-07
6.40851e-07
1.83114e-07
7.69498e-07
7.64555e-07
5.51055e-07
6.88476e-07
7.61885e-07
7.6314e-07
6.00129e-07
5.23401e-08
7.75911e-07
5.20075e-08
7.00895e-07
3.53991e-08
7.00585e-07
3.52886e-08
6.1502e-07
8.15395e-07
8.43997e-07
5.8553e-07
4.66132e-07
8.83329e-07
8.63019e-07
7.72014e-07
7.6958e-07
7.13936e-07
7.45871e-07
7.68551e-07
7.68739e-07
7.16654e-07
5.20013e-08
7.69282e-07
5.19808e-08
7.00078e-07
3.52854e-08
6.95061e-07
3.52767e-08
9.11453e-07
9.17189e-07
8.66798e-07
8.91151e-07
8.81412e-07
8.77716e-07
8.63522e-07
7.45079e-07
7.6716e-07
5.98325e-07
7.24013e-07
7.47059e-07
7.69917e-07
4.82787e-07
5.19791e-08
8.93184e-08
1.83541e-07
6.16786e-07
3.5253e-08
6.10505e-08
1.29422e-07
7.52726e-07
8.42807e-07
8.62218e-07
7.58236e-07
6.13569e-07
8.4175e-07
8.03335e-07
7.66511e-07
7.52755e-07
7.40367e-07
6.77312e-07
7.68383e-07
7.61877e-07
7.33558e-07
1.83832e-07
5.18082e-08
1.83832e-07
4.43659e-08
1.29567e-07
3.51559e-08
1.29567e-07
8.29465e-07
9.12773e-07
9.02782e-07
7.37866e-07
6.58135e-07
8.9026e-07
7.82588e-07
7.63041e-07
7.71117e-07
6.32046e-07
7.24174e-07
7.6244e-07
7.67873e-07
6.07111e-07
1.83833e-07
1.83237e-07
1.84017e-07
3.51319e-08
1.29567e-07
1.29214e-07
1.29658e-07
8.81076e-08
8.39841e-08
3.51695e-08
5.2526e-08
5.18516e-08
6.0489e-08
1.20742e-07
7.66222e-07
6.17947e-07
6.93691e-07
6.45543e-07
7.07012e-07
7.67602e-07
6.93383e-07
1.26857e-07
3.58265e-08
9.22395e-08
5.32699e-08
5.29149e-08
1.32181e-07
8.83742e-08
7.65208e-07
7.5614e-07
7.67157e-07
7.4872e-07
7.5231e-07
7.61569e-07
7.674e-07
8.82216e-08
5.26056e-08
1.20912e-07
5.18598e-08
5.18585e-08
8.84391e-08
1.2081e-07
7.6678e-07
6.37894e-07
6.92053e-07
7.66806e-07
6.8103e-07
7.6744e-07
7.65816e-07
1.26917e-07
5.33731e-08
5.31006e-08
1.32266e-07
5.30219e-08
1.32211e-07
1.27004e-07
3.314e-07
1.61062e-07
4.4945e-08
5.76394e-08
2.22452e-07
6.61834e-08
2.51288e-07
7.68109e-07
6.96131e-07
6.93958e-07
7.49649e-07
7.57752e-07
7.68972e-07
6.97935e-07
7.66704e-07
6.99549e-08
6.96164e-07
1.78421e-07
1.01383e-07
7.7093e-07
6.92441e-07
7.09108e-07
7.01506e-07
7.65562e-07
6.58445e-07
7.63854e-07
6.41458e-07
6.92712e-07
3.30716e-07
5.78144e-08
2.20702e-07
6.63979e-08
2.21439e-07
6.63413e-08
3.3166e-07
7.64702e-07
6.79512e-07
7.50463e-07
7.68221e-07
7.47598e-07
7.68357e-07
7.63587e-07
7.65386e-07
1.78536e-07
1.01509e-07
7.71315e-07
1.01447e-07
7.70666e-07
7.66367e-07
7.72051e-07
6.99852e-07
6.95105e-07
5.35445e-07
7.73883e-07
7.6956e-07
6.98725e-07
7.73653e-07
5.80256e-07
6.99484e-07
7.68528e-07