/*--------------------------------*- C++ -*----------------------------------*\
| =========                 |                                                 |
| \\      /  F ield         | OpenFOAM: The Open Source CFD Toolbox           |
|  \\    /   O peration     | Version:  5.0                                   |
|   \\  /    A nd           | Web:      www.OpenFOAM.org                      |
|    \\/     M anipulation  |                                                 |
\*---------------------------------------------------------------------------*/
FoamFile
{
    version     2.0;
    format      ascii;
    class       volVectorField;
    location    "2.2";
    object      U;
}
// * * * * * * * * * * * * * * * * * * * * * * * * * * * * * * * * * * * * * //

dimensions      [0 1 -1 0 0 0 0];

internalField   nonuniform List<vector> 
7975
(
(0.00683176 0.00890177 0.00476184)
(-0.0244698 -0.00224519 0.000468978)
(0.00354544 -0.000421663 -0.00300769)
(-0.0068145 -0.00217382 0.00113822)
(-0.00533985 -0.00285786 -0.000987389)
(-0.00103276 0.000119533 2.62653e-06)
(0.000528939 2.57789e-05 2.65576e-07)
(0.000867611 1.08939e-05 -1.84129e-06)
(0.000820568 9.36081e-06 -1.40516e-07)
(0.000822069 5.26124e-06 1.0599e-07)
(0.000818159 3.50228e-06 1.04419e-07)
(0.000815813 2.04723e-06 6.7113e-08)
(0.000814414 1.39824e-06 2.66931e-09)
(0.000812654 1.15203e-06 7.83625e-08)
(0.000810577 6.74052e-07 5.03758e-08)
(0.000809099 4.60317e-07 8.03718e-09)
(0.000807641 1.27193e-07 5.38914e-08)
(0.000806066 7.80952e-08 1.15143e-07)
(0.000804488 1.15649e-07 6.35948e-08)
(0.000802947 4.13288e-08 2.11532e-07)
(0.000801548 -7.09031e-08 6.58685e-08)
(0.000800096 1.51292e-08 6.76256e-08)
(0.000798544 -1.71091e-07 3.53286e-08)
(0.000796946 -3.20069e-07 5.07747e-08)
(0.000795414 -6.53761e-08 4.63462e-10)
(0.000794073 1.24417e-08 6.08992e-10)
(0.000792668 1.09903e-07 5.76021e-08)
(0.000791241 4.69388e-08 5.16356e-08)
(0.000789605 1.78037e-07 1.76707e-07)
(0.000788058 -2.21802e-07 1.03036e-07)
(0.000786444 -4.64516e-07 7.6901e-08)
(0.000784714 -4.91673e-07 -6.42556e-08)
(0.000783159 -3.34474e-07 8.39807e-08)
(0.000782125 1.09316e-07 7.64515e-08)
(0.000781169 2.01994e-07 4.42548e-08)
(0.000779165 4.35863e-07 3.71253e-08)
(0.000777158 2.92163e-07 2.59035e-08)
(0.000775636 2.96237e-07 3.54345e-08)
(0.000774724 5.05813e-07 5.1861e-08)
(0.000773599 1.66669e-07 9.17883e-08)
(0.000771778 2.59345e-08 1.98969e-08)
(0.000770225 -4.37459e-08 7.67822e-08)
(0.000769379 -7.55994e-07 9.54502e-08)
(0.000767729 -5.79369e-07 7.18132e-09)
(0.000765786 -2.1479e-07 3.01911e-08)
(0.000764449 -1.37882e-07 -1.23449e-07)
(0.000763185 -3.53844e-08 5.37618e-08)
(0.00076203 -1.40158e-07 6.64271e-08)
(0.000760343 -3.79903e-07 4.03668e-08)
(0.000758756 -3.28109e-07 1.1794e-08)
(0.000628218 -0.011421 0.00122246)
(0.016228 0.00207113 0.000873889)
(0.0158525 0.018529 0.00116675)
(7.8341e-05 -0.00298541 0.00221745)
(0.00170813 -0.0029653 -0.000158736)
(0.00125445 0.000806915 2.44511e-05)
(0.000317172 1.55531e-06 3.50949e-06)
(0.000841911 4.35555e-06 -2.51217e-06)
(0.000821837 2.98931e-05 -1.34784e-07)
(0.000817559 8.06548e-06 -8.5845e-09)
(0.000816337 5.33186e-06 3.52579e-08)
(0.000814602 2.63347e-06 3.90607e-08)
(0.000813313 1.55621e-06 3.14867e-08)
(0.000811733 6.71647e-07 4.15573e-08)
(0.000810356 4.34055e-07 4.7532e-08)
(0.000808816 3.16135e-07 4.69254e-08)
(0.000807307 3.85892e-07 5.37692e-08)
(0.000806067 4.38724e-07 7.65549e-08)
(0.000804658 5.60918e-07 4.68965e-08)
(0.000803068 3.09801e-07 2.25588e-08)
(0.000801467 3.52045e-07 9.60348e-08)
(0.00079979 2.60785e-07 1.14222e-08)
(0.000798099 5.13274e-07 6.2234e-08)
(0.000797186 4.95801e-07 6.33778e-08)
(0.00079601 2.32264e-07 -1.65245e-08)
(0.000794071 1.07323e-07 5.6056e-08)
(0.000792452 4.66247e-08 2.96591e-08)
(0.000791086 -1.01095e-07 4.89832e-08)
(0.000789298 -4.32593e-07 7.06882e-08)
(0.000787523 -3.48348e-07 3.01496e-08)
(0.000786337 -2.91082e-07 -1.36873e-07)
(0.000784968 -1.32741e-07 1.83748e-08)
(0.000783878 4.18375e-07 1.25232e-07)
(0.00078253 5.89622e-07 9.19925e-08)
(0.000780713 2.34411e-07 4.43243e-08)
(0.000779201 -1.61784e-08 3.18364e-08)
(0.000777744 1.45471e-07 4.47052e-08)
(0.000776415 3.47437e-07 5.06903e-09)
(0.000774563 5.64648e-07 3.39489e-08)
(0.000772798 2.21368e-07 2.55087e-08)
(0.000771527 1.7886e-07 2.64045e-08)
(0.0007698 -3.94553e-08 5.97999e-08)
(0.000768399 -1.93998e-07 7.56672e-08)
(0.000767869 -7.30109e-07 8.99618e-08)
(0.000766503 -2.63351e-07 4.80835e-08)
(0.000764692 -1.10701e-07 5.28904e-08)
(0.000763239 1.76164e-07 8.05621e-08)
(0.000761691 1.18884e-08 4.99153e-08)
(0.000760303 -1.10432e-07 -7.63529e-08)
(0.000759289 -2.00271e-07 1.08869e-07)
(-0.0131531 -0.00538914 0.000887218)
(0.00484712 -0.00367876 0.00144715)
(0.00764418 -0.00717222 0.000189643)
(-0.000872965 0.000983143 0.000338648)
(-0.00589942 -0.00501941 -0.000149951)
(-0.000399715 0.000943605 -5.7345e-05)
(0.00045283 -0.000183291 3.77969e-05)
(0.000405983 9.01573e-06 -7.13001e-07)
(0.000842715 1.50872e-05 -1.60126e-06)
(0.000791382 8.19496e-07 -4.104e-07)
(0.000811334 1.51458e-06 2.04389e-07)
(0.000811073 5.30196e-07 4.69374e-08)
(0.000811952 2.0921e-07 6.0498e-08)
(0.000811246 6.594e-08 5.21016e-08)
(0.00081013 7.97388e-08 5.34179e-08)
(0.000809036 2.13115e-08 5.51479e-08)
(0.000807792 1.06449e-07 3.76553e-08)
(0.000806281 1.26547e-07 -6.48282e-09)
(0.000804323 -4.40424e-08 1.10771e-07)
(0.000802682 -6.76271e-09 4.50331e-08)
(0.000801484 -2.34927e-08 1.97781e-07)
(0.000800293 8.41916e-08 4.85022e-08)
(0.000798834 2.17516e-07 5.50634e-08)
(0.00079659 4.62375e-07 1.58534e-08)
(0.000794926 1.65803e-07 4.86537e-08)
(0.000793839 5.35008e-08 3.34239e-08)
(0.000792407 2.65479e-08 6.91034e-08)
(0.000790644 2.91711e-08 5.42118e-08)
(0.0007893 -5.30977e-08 -1.43072e-09)
(0.00078824 4.05126e-07 2.19499e-08)
(0.000786717 4.83407e-07 2.18739e-07)
(0.0007856 5.0486e-07 5.53749e-08)
(0.00078406 4.48687e-07 -5.05185e-09)
(0.000781891 1.49118e-07 4.55599e-09)
(0.000780409 4.25717e-08 8.8276e-08)
(0.000779052 5.74605e-08 5.41171e-08)
(0.000777611 1.86475e-08 2.10047e-07)
(0.000776156 -3.53078e-08 5.07739e-08)
(0.000774562 -1.59405e-07 3.01121e-08)
(0.000773114 3.70653e-11 3.24117e-08)
(0.00077145 -1.33365e-07 7.26859e-08)
(0.00076976 3.74004e-08 8.23051e-08)
(0.000768519 4.70683e-07 1.61322e-07)
(0.000767646 5.59216e-07 1.29864e-07)
(0.000766565 1.13132e-07 5.41807e-08)
(0.000764999 1.69256e-07 1.11917e-07)
(0.000763339 2.17462e-07 6.0598e-08)
(0.000761672 3.85281e-07 3.90393e-08)
(0.000760084 2.16085e-07 -2.46661e-08)
(0.000759142 1.50456e-07 1.25947e-07)
(0.00396056 0.00514885 0.000207214)
(0.00133879 0.00199425 -2.04138e-05)
(0.00116047 -0.000704961 0.00090709)
(0.0108463 -3.68293e-05 -0.000233567)
(-0.0123932 0.00135565 -0.000267849)
(0.0024946 -0.00147847 2.43001e-05)
(0.000754309 7.40413e-06 0.00012726)
(0.000413682 -4.24158e-05 -1.62113e-06)
(0.000866103 -2.22702e-05 -1.304e-06)
(0.000800523 -1.10816e-05 -4.46406e-07)
(0.000815965 -4.91784e-06 1.69325e-07)
(0.000812963 -2.29589e-06 1.59289e-08)
(0.00081273 -1.19487e-06 5.47943e-08)
(0.000811571 -5.57024e-07 4.85191e-08)
(0.0008103 -1.24383e-07 4.66949e-08)
(0.000808848 -2.67402e-08 4.8167e-08)
(0.000807438 -2.13307e-07 4.29757e-08)
(0.000805878 -3.04463e-07 6.14247e-08)
(0.000804492 -4.6408e-07 3.70759e-08)
(0.000803095 -3.01099e-07 2.6311e-08)
(0.000801581 -1.8989e-07 7.16097e-08)
(0.000800091 -1.83395e-07 4.97789e-08)
(0.00079857 -4.64504e-07 -6.44225e-09)
(0.000797119 -3.56343e-07 6.12766e-08)
(0.000795497 1.39599e-08 2.61783e-08)
(0.000793896 1.91529e-07 2.97021e-08)
(0.000792421 2.76349e-07 6.47914e-08)
(0.000790986 4.28939e-07 6.03406e-08)
(0.000789766 7.26239e-07 -1.834e-08)
(0.00078819 4.33962e-07 4.38909e-08)
(0.000786456 3.54168e-07 1.36314e-08)
(0.00078492 4.65379e-07 -3.47948e-08)
(0.00078343 -5.37862e-08 4.61432e-08)
(0.000782021 -8.51411e-08 5.28999e-08)
(0.000780597 3.3583e-08 6.24722e-08)
(0.000779171 6.98403e-09 7.02977e-08)
(0.000777628 -2.26609e-08 4.63021e-08)
(0.000776193 -9.82964e-08 4.80444e-08)
(0.000774607 -2.11328e-07 1.58207e-08)
(0.000772831 -1.69782e-07 4.65366e-08)
(0.000771574 -1.31425e-07 6.10624e-08)
(0.000770553 1.39619e-07 4.6985e-08)
(0.000769048 3.43441e-07 1.87657e-07)
(0.000767417 6.1036e-07 -1.00304e-07)
(0.000766012 2.26887e-07 -5.19514e-08)
(0.00076482 1.09384e-07 4.36351e-08)
(0.000763506 9.7896e-08 5.9122e-08)
(0.000761686 3.47351e-07 4.49204e-08)
(0.000760005 1.83842e-07 4.85544e-08)
(0.000758831 2.79755e-07 1.47108e-07)
(-0.00631539 -0.00793293 0.000432632)
(0.00656726 0.00126376 -0.00040724)
(-0.0101759 -0.0110821 0.000736308)
(-0.0139329 0.0011596 -0.000602596)
(-0.000599536 0.00340399 0.000185885)
(-0.000223691 0.00228654 -4.48215e-05)
(0.00162535 0.000162983 6.348e-06)
(0.00047773 -3.29437e-05 -2.00135e-06)
(0.000899552 -1.23277e-05 -1.20073e-06)
(0.000813104 -6.83376e-06 -6.76097e-07)
(0.000822359 -3.57412e-06 1.63331e-07)
(0.000815745 -2.13647e-06 7.20663e-08)
(0.000814132 -1.11895e-06 2.11494e-07)
(0.000812586 -7.59615e-07 4.63331e-08)
(0.000810793 -6.58827e-07 -1.20477e-08)
(0.000808925 -4.24292e-07 3.73535e-08)
(0.000807445 -1.99368e-07 6.23709e-08)
(0.00080597 -1.79805e-07 5.06338e-08)
(0.00080433 -5.02963e-08 1.17824e-07)
(0.000803028 -1.24129e-08 4.08821e-09)
(0.000801633 -8.22656e-08 6.59515e-08)
(0.000799953 1.99205e-08 9.23693e-08)
(0.000798621 8.14266e-09 3.47685e-07)
(0.000797191 2.59039e-08 9.78632e-08)
(0.000795611 4.20877e-08 1.91266e-07)
(0.000794165 -6.97787e-08 6.68811e-08)
(0.000792701 1.84069e-07 6.73726e-08)
(0.000791201 3.20291e-07 5.76671e-08)
(0.000789299 4.97228e-07 2.28787e-07)
(0.000787768 6.2532e-07 3.73863e-08)
(0.00078675 3.29201e-07 5.62186e-08)
(0.000785086 -2.39873e-08 2.46576e-08)
(0.000783368 1.97025e-07 3.51262e-08)
(0.000781999 1.14144e-07 4.95685e-08)
(0.000780523 1.40113e-07 5.03657e-08)
(0.000778981 -3.00403e-08 4.55347e-08)
(0.00077748 -8.85419e-08 -1.33705e-07)
(0.000775922 -1.28909e-07 6.12828e-08)
(0.000774475 -1.66217e-07 4.28112e-08)
(0.000773216 -1.38489e-07 6.59177e-08)
(0.000771837 2.27816e-07 2.92859e-08)
(0.000770351 1.86941e-07 4.05533e-07)
(0.000769103 1.0128e-07 1.23436e-08)
(0.000767496 8.03133e-08 5.04958e-08)
(0.000765935 -3.30168e-09 8.35828e-08)
(0.000764837 -1.56634e-07 5.07209e-08)
(0.000763636 -4.66901e-07 1.17992e-08)
(0.000761778 -8.46067e-07 -2.35606e-07)
(0.000759993 -2.93698e-07 4.05175e-08)
(0.000758565 1.567e-08 4.96294e-08)
(-0.0133091 0.00671642 -0.00233167)
(0.00297476 0.0004719 0.00190654)
(-0.00559135 -0.00480465 0.00142741)
(0.00124154 0.00209955 5.70332e-05)
(-0.0133314 -0.012106 0.00120834)
(0.00919131 0.000213316 0.000191277)
(0.00125972 -0.000143333 -4.53929e-06)
(0.00048271 6.35121e-06 -1.02407e-06)
(0.000892509 9.57115e-06 -1.21952e-06)
(0.00081148 3.76856e-06 -6.34921e-07)
(0.000821854 8.38322e-07 1.67479e-07)
(0.000816039 -1.01136e-07 7.02262e-09)
(0.000814455 -2.12978e-07 1.24584e-08)
(0.000812148 -3.31944e-07 4.40408e-08)
(0.000810722 -3.72846e-07 7.43392e-08)
(0.000809424 -3.60453e-07 6.04528e-08)
(0.000807745 -2.03748e-07 4.6555e-08)
(0.000806065 -1.26182e-07 9.34589e-09)
(0.0008047 -2.80194e-08 2.51413e-08)
(0.000803055 2.67095e-07 6.88904e-08)
(0.00080162 2.43039e-07 -3.00068e-09)
(0.000800204 1.77875e-07 3.01314e-07)
(0.000798577 2.64769e-07 7.7321e-08)
(0.000797161 1.28717e-07 6.63043e-08)
(0.000795378 1.26787e-07 6.76833e-08)
(0.000794073 2.15231e-07 9.10593e-09)
(0.000792907 5.05017e-09 4.00245e-08)
(0.000791375 -1.03866e-07 9.6904e-09)
(0.000790144 4.8507e-08 3.39018e-08)
(0.000787976 -1.81777e-07 -1.51806e-07)
(0.000785642 -2.1646e-07 1.99049e-08)
(0.000784752 -1.89342e-07 1.47518e-07)
(0.000783601 -1.73221e-07 1.38857e-08)
(0.000781947 -1.30558e-07 -4.37766e-08)
(0.000780416 -1.71538e-07 -2.77618e-08)
(0.000778884 -7.70163e-08 4.22632e-08)
(0.000777505 -3.39108e-08 6.34559e-08)
(0.000776097 5.34208e-08 5.87481e-08)
(0.000774596 1.82192e-07 6.21402e-08)
(0.000773324 2.06252e-07 6.02023e-08)
(0.000771979 2.14627e-07 5.21431e-08)
(0.000770394 4.1727e-07 2.65394e-07)
(0.000768914 2.51379e-07 -9.58177e-09)
(0.000767287 3.58964e-08 5.3053e-08)
(0.000765716 -1.29917e-08 1.11347e-07)
(0.000764243 -1.66049e-07 4.49484e-08)
(0.000762648 -5.08938e-07 -7.27453e-08)
(0.000761908 -7.64153e-07 -8.08261e-08)
(0.000761084 -5.19944e-07 1.77745e-07)
(0.000759179 -3.27164e-07 1.26332e-07)
(-0.0115538 -0.000523402 0.000521716)
(-0.00940336 -0.0183121 0.00100858)
(6.89474e-06 -0.00171852 -0.00531389)
(-0.00186783 -0.000650676 0.00112983)
(-0.00525337 0.00938998 -0.000535148)
(0.00721994 -0.00485874 -0.000179089)
(0.000917803 -0.00034336 4.56621e-05)
(0.000432271 2.56868e-05 5.36659e-07)
(0.000862383 6.32553e-06 -1.32217e-06)
(0.000802146 3.51173e-06 -4.70932e-07)
(0.000817487 7.60458e-07 1.76354e-07)
(0.000814415 1.93629e-07 3.24743e-08)
(0.000813837 -2.22805e-07 6.62169e-08)
(0.000812383 -2.00287e-07 5.16069e-08)
(0.000810757 -1.45163e-07 4.56364e-08)
(0.000809136 -4.45236e-08 5.18685e-08)
(0.000807738 -5.10569e-08 5.17508e-08)
(0.000806189 4.93284e-08 1.09406e-07)
(0.00080482 1.92892e-07 4.38711e-08)
(0.000803363 1.44338e-08 4.99121e-08)
(0.000801518 1.35484e-07 2.34829e-08)
(0.000799977 3.0112e-08 4.75502e-08)
(0.000798557 1.7078e-07 -6.00521e-08)
(0.000797016 6.8433e-08 4.44158e-08)
(0.000795718 1.18567e-07 1.03862e-08)
(0.000794012 2.08681e-07 1.02414e-07)
(0.000792302 -6.01255e-08 6.17137e-08)
(0.000791256 -2.4098e-07 4.40855e-08)
(0.000789204 -8.66087e-07 -6.00419e-08)
(0.000787439 -1.08965e-06 1.11317e-07)
(0.000786743 -6.43243e-07 -8.39757e-08)
(0.000785143 -1.41706e-07 7.09117e-08)
(0.000783444 -8.61789e-08 3.85959e-08)
(0.000782003 -1.23272e-07 6.6555e-08)
(0.000780592 -1.38367e-07 7.19896e-08)
(0.000779154 -6.05073e-08 5.28058e-08)
(0.000777643 8.35306e-09 5.4618e-08)
(0.000776192 4.87262e-08 3.41514e-08)
(0.000774665 8.84845e-08 3.66043e-08)
(0.000773255 2.67728e-07 -5.42314e-08)
(0.000772099 5.42126e-08 4.12296e-08)
(0.000770395 -1.55102e-07 -1.99947e-08)
(0.000768625 -6.22482e-08 6.64615e-08)
(0.000767165 -2.06286e-07 5.54351e-08)
(0.000765684 -4.3725e-08 8.68047e-09)
(0.000764219 4.81565e-09 4.98043e-08)
(0.000762892 -1.18821e-08 3.55078e-08)
(0.00076177 1.48922e-07 4.14377e-08)
(0.000760549 -2.74494e-07 1.46034e-08)
(0.000759622 -3.12422e-07 5.69329e-08)
(0.000289305 0.0188793 0.000490279)
(0.00784573 -0.000377815 0.000110782)
(-0.0140228 -0.0141093 0.000116309)
(-0.00184796 0.00555459 0.000248677)
(0.00196628 -0.00989087 0.000164578)
(0.0044572 0.00218199 6.31168e-05)
(0.00176226 -0.000670621 0.000101531)
(0.000463548 -1.93159e-05 1.11616e-06)
(0.000860299 -2.21042e-05 -1.29479e-06)
(0.000804451 -4.06466e-06 -4.05502e-07)
(0.00081768 -2.97502e-06 1.66692e-07)
(0.0008148 -1.18612e-06 3.87928e-08)
(0.000813958 -6.48135e-07 5.64346e-08)
(0.000812244 -3.81405e-07 5.11152e-08)
(0.000810916 -2.84413e-07 7.9006e-08)
(0.000809542 -7.64508e-08 5.13346e-08)
(0.000807862 -1.58146e-07 1.35432e-07)
(0.000806369 -1.59079e-07 6.23658e-08)
(0.000804656 -1.30609e-07 7.72005e-08)
(0.000802981 -1.51478e-07 4.65614e-08)
(0.000801639 -1.94622e-07 4.84485e-08)
(0.000800247 -4.35784e-08 5.78292e-08)
(0.000798624 -2.32099e-07 3.2214e-08)
(0.000797095 -1.4974e-07 4.66609e-08)
(0.000795552 -3.19434e-07 6.36976e-08)
(0.000793849 -3.42487e-07 4.9252e-08)
(0.000792346 -9.91147e-08 -9.38888e-08)
(0.000790371 -2.25243e-07 1.36169e-07)
(0.000789089 -4.07611e-07 1.55012e-07)
(0.000788262 1.92146e-07 3.64889e-08)
(0.000786832 2.66217e-07 7.81831e-08)
(0.000785451 -2.16458e-08 4.03459e-08)
(0.000783625 -5.27795e-08 4.12306e-08)
(0.000781883 7.92228e-08 4.77701e-08)
(0.000780496 1.73332e-08 4.41034e-08)
(0.000779069 -1.4801e-07 3.909e-08)
(0.000777642 -1.28786e-07 5.63134e-08)
(0.000776197 -1.44936e-07 4.60454e-08)
(0.000774869 -3.42615e-08 4.32915e-08)
(0.00077328 -1.59627e-08 8.38429e-08)
(0.00077145 -8.16328e-08 2.21529e-08)
(0.000770249 -1.32516e-07 5.55888e-08)
(0.000768852 -1.81193e-08 3.61868e-08)
(0.000767312 -5.5255e-08 4.50852e-08)
(0.000765981 -1.08422e-08 4.74562e-08)
(0.000764284 9.26628e-08 4.66115e-08)
(0.000762829 4.53277e-07 4.39603e-08)
(0.00076158 3.41646e-07 5.39418e-08)
(0.000760516 2.33014e-07 7.8481e-08)
(0.000759911 -4.54048e-08 3.26233e-09)
(-0.00146595 0.00203275 -7.29348e-05)
(0.00664713 -0.00416425 0.005152)
(-0.00737673 -0.00137903 -0.000876169)
(0.00873944 0.000890411 0.000357572)
(0.000141532 -0.00179386 -0.0003048)
(-0.000708442 -0.0016471 8.73073e-05)
(0.000482166 0.000156913 5.21056e-05)
(0.000875254 2.37126e-05 -2.12004e-06)
(0.000835626 -1.84688e-05 -1.66959e-07)
(0.000826109 -2.75877e-06 3.0524e-08)
(0.000821108 -2.20317e-06 4.1895e-08)
(0.000817338 -6.34584e-07 4.13551e-08)
(0.000814849 -2.65689e-07 4.96639e-08)
(0.000812842 -2.58066e-07 5.23791e-08)
(0.000811141 5.01999e-08 5.21689e-08)
(0.000809296 -1.28131e-08 1.09943e-07)
(0.000807636 1.67831e-08 7.37894e-08)
(0.000806225 -7.41656e-08 4.90142e-07)
(0.000804831 -2.14202e-07 6.03109e-08)
(0.000803286 -3.65869e-08 7.66763e-08)
(0.000801655 4.11778e-08 4.92199e-08)
(0.000799933 -1.49353e-07 -5.61929e-08)
(0.000798427 -2.25348e-07 3.23121e-08)
(0.00079691 -2.36642e-07 5.3871e-08)
(0.00079548 -2.61082e-07 2.36832e-08)
(0.000794291 -2.04845e-07 5.98739e-08)
(0.000792452 -2.60395e-07 1.9982e-08)
(0.000790873 -1.55421e-07 7.62225e-08)
(0.000789727 2.4392e-07 7.87014e-08)
(0.000788281 2.81008e-07 -7.0642e-09)
(0.000786475 2.95151e-07 3.68443e-08)
(0.000784743 1.52506e-07 1.42567e-07)
(0.00078357 -2.25058e-07 -1.93425e-07)
(0.00078209 -2.49306e-07 6.02276e-08)
(0.000780308 -2.46311e-07 2.89223e-08)
(0.000778973 -4.02776e-07 7.92238e-08)
(0.000777649 -2.30622e-07 -6.60778e-08)
(0.000776311 -1.80746e-07 5.01527e-08)
(0.000774826 -2.68677e-07 1.06519e-07)
(0.000773196 -2.95946e-07 4.05864e-08)
(0.000771954 -1.74598e-07 6.05204e-08)
(0.000770476 -2.54931e-08 1.62515e-08)
(0.000768723 2.46279e-07 8.04764e-08)
(0.000767176 1.46126e-07 3.89038e-08)
(0.000765869 1.48685e-07 6.27985e-08)
(0.000764798 1.20445e-07 4.77041e-08)
(0.000763201 2.96706e-07 2.82853e-08)
(0.000761492 4.52022e-07 4.2053e-08)
(0.000760065 7.3201e-07 -7.00328e-08)
(0.000759385 4.74405e-07 8.84823e-08)
(0.000528295 0.00139798 -0.00025501)
(0.00522417 -0.00116125 -0.000454359)
(0.00048656 0.0016937 0.000366191)
(0.00737354 -0.0287447 -0.00204725)
(0.0136973 0.00637952 -0.0033338)
(-0.000315945 0.000101006 0.00025543)
(0.000317332 1.91643e-05 3.59178e-06)
(0.000861823 1.52293e-05 -2.2845e-06)
(0.000828736 4.9592e-06 -3.59781e-08)
(0.000824894 3.31161e-06 9.38276e-08)
(0.000820362 1.72267e-06 9.62561e-08)
(0.000817238 9.49685e-07 5.17969e-08)
(0.000814436 4.99775e-07 6.2148e-08)
(0.000812642 5.98726e-07 5.15762e-08)
(0.000811224 3.47588e-07 5.30128e-08)
(0.0008095 1.4751e-07 6.85197e-08)
(0.000807786 1.89308e-07 4.58556e-08)
(0.000806081 1.50999e-07 4.31292e-08)
(0.000804704 6.17903e-08 9.49544e-08)
(0.000803301 -1.24319e-07 7.54721e-08)
(0.000801499 -2.10573e-07 1.62089e-07)
(0.000799916 -2.11687e-07 8.03734e-08)
(0.000798518 -8.14392e-08 5.79667e-08)
(0.000797054 -1.18434e-07 4.79933e-08)
(0.000795595 -5.35758e-08 6.5429e-08)
(0.000793853 -1.71596e-07 5.60283e-08)
(0.00079241 -2.28909e-07 5.68652e-08)
(0.000791002 1.26426e-09 4.33116e-08)
(0.000789633 6.54584e-08 2.3612e-08)
(0.000788324 -9.59827e-08 4.63683e-08)
(0.00078667 -1.12843e-07 1.36366e-07)
(0.000784801 -1.2165e-07 -2.59299e-08)
(0.000783124 -1.38589e-07 -7.94562e-08)
(0.000781859 -4.53146e-07 3.12034e-08)
(0.000780306 -1.13789e-07 4.06537e-08)
(0.00077909 2.34221e-07 2.74977e-08)
(0.00077792 3.98867e-08 1.94293e-08)
(0.000776151 -1.57625e-07 4.89074e-08)
(0.000774728 -5.0125e-07 5.25771e-08)
(0.000773401 -2.41875e-07 5.99554e-08)
(0.000771791 -1.80429e-07 6.69103e-08)
(0.000770776 -3.84918e-07 7.83883e-08)
(0.000769066 -3.82704e-07 2.65736e-08)
(0.000767189 1.39107e-07 1.31579e-07)
(0.000765948 6.02976e-08 2.74965e-08)
(0.000764466 7.47026e-08 3.45853e-08)
(0.000763239 -2.18399e-07 7.8786e-08)
(0.000762119 6.32678e-08 4.70894e-08)
(0.000760529 2.1352e-07 -3.94408e-08)
(0.000758406 2.93085e-07 6.59294e-08)
(-0.0023873 -0.0295437 -0.0079304)
(-0.0271324 0.00237902 0.0201048)
(0.00267292 -0.0132377 -0.000826592)
(0.00538784 0.00249883 0.00187151)
(0.00485243 0.014888 7.41139e-05)
(0.00820299 -0.00814374 -4.24552e-05)
(0.00154451 5.14669e-05 5.90056e-06)
(0.00144388 1.1635e-05 3.64759e-07)
(0.00136588 1.19544e-05 3.36206e-07)
(0.00136881 6.58517e-06 3.4813e-07)
(0.00136268 4.52655e-06 3.86728e-07)
(0.001359 2.61479e-06 3.29197e-07)
(0.00135681 1.83198e-06 2.91339e-07)
(0.00135402 1.56877e-06 3.64975e-07)
(0.00135065 9.12585e-07 3.45311e-07)
(0.0013482 6.48252e-07 2.63283e-07)
(0.00134576 1.28405e-07 3.38112e-07)
(0.00134312 7.36062e-08 4.11439e-07)
(0.00134051 1.21705e-07 3.71899e-07)
(0.00133798 2.79785e-09 5.64488e-07)
(0.00133564 -1.15731e-07 3.79846e-07)
(0.00133314 1.02289e-07 3.82351e-07)
(0.00133056 -1.75803e-07 3.04989e-07)
(0.00132796 -4.20985e-07 2.93809e-07)
(0.00132538 1.39921e-08 2.77719e-07)
(0.00132313 1.73697e-07 2.53649e-07)
(0.00132085 2.64553e-07 3.53535e-07)
(0.00131857 9.19159e-08 3.37011e-07)
(0.00131571 2.77507e-07 5.03758e-07)
(0.00131299 -4.4441e-07 3.94986e-07)
(0.0013104 -9.05956e-07 3.57999e-07)
(0.00130751 -8.68355e-07 1.16268e-07)
(0.00130501 -5.77866e-07 3.53185e-07)
(0.00130337 1.39902e-07 3.92442e-07)
(0.00130166 3.5626e-07 3.18317e-07)
(0.00129838 6.6184e-07 3.30537e-07)
(0.0012951 4.10059e-07 3.12547e-07)
(0.0012925 4.75482e-07 2.76217e-07)
(0.0012909 8.5862e-07 2.67041e-07)
(0.00128906 3.56821e-07 3.5851e-07)
(0.00128612 7.1734e-08 2.72418e-07)
(0.00128351 -6.54171e-08 3.3872e-07)
(0.00128209 -1.16474e-06 3.75301e-07)
(0.00127935 -8.88263e-07 2.14561e-07)
(0.00127618 -3.70224e-07 2.97177e-07)
(0.00127395 -2.80068e-07 1.37713e-07)
(0.00127178 -1.17257e-07 2.82856e-07)
(0.00126985 -3.01279e-07 3.30345e-07)
(0.001267 -6.20991e-07 3.39481e-07)
(0.00126426 -5.29571e-07 2.28419e-07)
(-0.0201234 -0.00354167 0.0116265)
(0.0636179 -0.0445412 0.00547836)
(0.000806253 0.00777904 0.00882231)
(0.00972157 -0.0180572 0.000109061)
(0.00332294 0.00647431 -0.00151491)
(-0.000809982 -0.00112637 0.000279028)
(0.00156577 -1.52042e-05 5.17946e-06)
(0.00140698 1.36763e-06 3.61346e-07)
(0.001371 4.60826e-05 4.06008e-07)
(0.00136293 1.12738e-05 3.5696e-07)
(0.00136066 7.52376e-06 3.39082e-07)
(0.00135763 3.56826e-06 3.38078e-07)
(0.00135538 2.10424e-06 3.41189e-07)
(0.00135269 8.54718e-07 3.36439e-07)
(0.0013504 5.51126e-07 3.36956e-07)
(0.00134779 4.26235e-07 2.76783e-07)
(0.00134525 5.69349e-07 3.3768e-07)
(0.00134319 6.63067e-07 4.01852e-07)
(0.00134079 9.02052e-07 3.10128e-07)
(0.00133814 5.01151e-07 3.05861e-07)
(0.00133553 5.87449e-07 3.84447e-07)
(0.00133275 4.32158e-07 8.61949e-09)
(0.0013299 9.00862e-07 3.69318e-07)
(0.00132835 8.59936e-07 3.98677e-07)
(0.00132637 4.49475e-07 1.09625e-07)
(0.00132311 2.48726e-07 3.88879e-07)
(0.00132037 1.38742e-07 2.76597e-07)
(0.0013181 -1.8194e-07 3.29173e-07)
(0.00131515 -8.59349e-07 2.98506e-07)
(0.00131218 -6.30898e-07 3.05027e-08)
(0.00131028 -5.15641e-07 4.31463e-08)
(0.00130809 -2.5499e-07 2.79492e-07)
(0.00130619 7.42804e-07 4.76883e-07)
(0.00130399 1.01484e-06 4.77047e-07)
(0.00130099 3.79965e-07 3.30072e-07)
(0.00129838 1.30339e-08 3.13211e-07)
(0.00129598 2.70702e-07 3.15482e-07)
(0.00129378 5.77744e-07 7.83531e-08)
(0.00129073 9.53437e-07 3.6022e-07)
(0.00128779 4.46924e-07 3.01915e-07)
(0.00128561 2.80949e-07 8.32136e-08)
(0.00128279 -9.32103e-08 3.55362e-07)
(0.0012805 -3.74953e-07 2.97236e-07)
(0.00127952 -1.17343e-06 4.11345e-07)
(0.00127722 -4.40787e-07 3.25263e-07)
(0.00127429 -2.32637e-07 2.71252e-07)
(0.00127191 2.64733e-07 4.74876e-07)
(0.00126933 -1.29402e-08 3.13371e-07)
(0.00126697 -2.59007e-07 6.4509e-08)
(0.00126525 -3.52312e-07 4.03608e-07)
(0.00179632 -0.00323568 1.78339e-05)
(-0.00274316 -0.00873605 0.00440063)
(-0.0122574 -0.0209249 0.00979754)
(-0.00697619 0.00352027 0.0086614)
(-0.00312588 -0.000970473 -0.000295456)
(-0.00198497 0.00250549 -0.00043284)
(0.00118702 0.000451662 4.93059e-05)
(0.00122334 1.74433e-05 4.68928e-07)
(0.00140733 2.27781e-05 -3.1805e-07)
(0.00132068 1.25311e-08 3.27783e-07)
(0.001353 1.63724e-06 3.37655e-07)
(0.0013522 3.27195e-07 3.36795e-07)
(0.0013534 -3.85083e-09 3.37171e-07)
(0.00135207 -1.00349e-07 3.37675e-07)
(0.00135011 -8.45687e-10 3.37363e-07)
(0.00134822 -6.54231e-08 3.36783e-07)
(0.00134606 1.1636e-07 3.3022e-07)
(0.00134353 1.62275e-07 1.98206e-07)
(0.0013403 -1.32519e-07 4.78956e-07)
(0.00133758 -4.00565e-08 3.26765e-07)
(0.00133555 -4.88588e-08 4.66366e-07)
(0.00133353 1.06953e-07 3.32384e-07)
(0.00133109 3.38605e-07 3.15345e-07)
(0.00132738 7.38119e-07 1.95675e-07)
(0.00132462 2.28449e-07 3.43242e-07)
(0.00132274 7.30175e-08 3.07534e-07)
(0.00132031 5.16583e-08 3.883e-07)
(0.00131733 7.94402e-08 3.25474e-07)
(0.00131516 -5.09853e-08 2.21061e-07)
(0.00131343 7.53412e-07 2.41384e-07)
(0.00131088 9.29059e-07 4.99498e-07)
(0.00130908 9.08188e-07 4.67347e-07)
(0.00130659 7.53626e-07 2.14176e-07)
(0.00130291 3.01857e-07 1.77195e-07)
(0.00130041 5.5373e-08 3.68953e-07)
(0.00129824 8.03526e-08 3.37006e-07)
(0.0012958 5.10665e-08 4.64922e-07)
(0.00129335 -3.73823e-08 3.48581e-07)
(0.00129073 -2.26999e-07 3.09023e-07)
(0.00128822 -1.24394e-08 3.09418e-07)
(0.00128544 -1.98756e-07 3.79024e-07)
(0.00128269 7.34468e-08 4.00883e-07)
(0.00128074 8.53446e-07 7.87883e-07)
(0.00127927 9.39794e-07 3.37448e-07)
(0.00127736 3.04066e-07 1.70091e-07)
(0.00127483 3.70506e-07 3.95154e-07)
(0.00127205 4.23711e-07 3.45079e-07)
(0.0012692 6.25508e-07 2.92012e-07)
(0.00126659 3.45569e-07 2.26582e-07)
(0.00126502 2.34848e-07 5.27984e-07)
(-0.00446973 -0.00405795 -0.00313805)
(0.00525414 -0.00482592 -0.000771129)
(-0.0091724 -0.0168563 0.00108465)
(-8.4705e-05 -0.00494865 0.00234668)
(-0.0100791 -0.00321739 -0.00173769)
(0.00479903 -0.00618231 -0.000760006)
(0.000874464 -0.000608481 0.000187009)
(0.00125145 -0.000134193 1.24636e-07)
(0.00144767 -3.74523e-05 2.96991e-07)
(0.00133639 -1.86649e-05 6.23356e-07)
(0.00136103 -8.31798e-06 3.42112e-07)
(0.00135556 -3.89652e-06 3.36835e-07)
(0.00135484 -2.03063e-06 3.37805e-07)
(0.00135269 -9.53907e-07 3.37873e-07)
(0.00135044 -2.42726e-07 3.36857e-07)
(0.00134793 -6.33314e-08 3.36542e-07)
(0.00134553 -3.5366e-07 3.32458e-07)
(0.00134287 -4.69581e-07 3.60204e-07)
(0.00134054 -7.60085e-07 3.33684e-07)
(0.00133825 -5.29018e-07 3.0021e-07)
(0.00133572 -3.54666e-07 3.58861e-07)
(0.00133323 -3.29009e-07 3.32364e-07)
(0.00133068 -7.57176e-07 1.65903e-07)
(0.00132821 -5.73956e-07 3.86859e-07)
(0.00132554 4.16116e-09 2.75352e-07)
(0.00132289 2.95339e-07 2.70825e-07)
(0.00132038 4.53813e-07 3.983e-07)
(0.00131797 7.62809e-07 3.85083e-07)
(0.00131598 1.35374e-06 2.69587e-07)
(0.0013134 8.51545e-07 3.05401e-07)
(0.00131047 7.51188e-07 3.26855e-07)
(0.00130786 9.50965e-07 2.04342e-07)
(0.00130543 3.79605e-08 3.14667e-07)
(0.00130311 -1.05759e-07 3.28106e-07)
(0.00130071 9.90611e-08 3.19326e-07)
(0.00129838 2.68089e-08 3.33883e-07)
(0.00129583 -6.78912e-08 3.17625e-07)
(0.00129343 -1.58822e-07 3.39929e-07)
(0.00129076 -3.99009e-07 1.95393e-07)
(0.00128782 -3.09635e-07 2.84928e-07)
(0.00128572 -1.66916e-07 3.08917e-07)
(0.0012841 3.52285e-07 3.04774e-07)
(0.00128158 6.78164e-07 6.51327e-07)
(0.00127883 1.01782e-06 -3.39074e-08)
(0.00127651 3.82147e-07 2.18514e-07)
(0.00127443 1.85023e-07 3.17888e-07)
(0.00127222 1.22597e-07 3.4676e-07)
(0.00126923 4.85807e-07 3.04938e-07)
(0.00126648 3.14826e-07 3.74323e-07)
(0.00126453 4.5653e-07 5.15472e-07)
(-0.00771118 -0.00831167 0.0056935)
(-0.0110183 0.0182046 -0.00640492)
(0.0209286 -0.0120654 0.00212007)
(0.000870319 -0.00475689 -0.000640607)
(0.00411421 -0.00169816 0.00111937)
(-0.000825155 0.00412391 -0.000825947)
(0.000582904 -0.00067278 -4.62613e-05)
(0.00144605 -0.000102114 1.50477e-06)
(0.00150308 -1.90017e-05 6.02749e-07)
(0.0013571 -1.04142e-05 4.22891e-07)
(0.00137152 -5.33262e-06 3.64084e-07)
(0.00136008 -3.17029e-06 7.96243e-07)
(0.00135709 -1.59852e-06 4.51062e-07)
(0.00135431 -1.09298e-06 3.38201e-07)
(0.00135122 -9.55574e-07 2.45776e-07)
(0.00134808 -6.05429e-07 3.50539e-07)
(0.00134555 -2.68403e-07 3.98918e-07)
(0.00134303 -2.77678e-07 3.34605e-07)
(0.00134023 -2.87841e-08 3.93886e-07)
(0.00133809 5.32649e-08 2.60362e-07)
(0.00133581 -1.69308e-07 3.67344e-07)
(0.00133303 6.62953e-08 3.94483e-07)
(0.00133079 2.29316e-08 1.00472e-06)
(0.00132834 3.59613e-08 3.84625e-07)
(0.0013257 8.50662e-08 4.00041e-07)
(0.0013233 -1.42149e-07 3.68302e-07)
(0.00132089 2.86013e-07 3.8418e-07)
(0.00131844 5.22343e-07 3.25154e-07)
(0.00131526 8.3436e-07 4.98512e-07)
(0.00131266 9.85962e-07 3.11247e-07)
(0.00131099 5.30941e-07 3.54804e-07)
(0.00130818 -3.93814e-08 2.87123e-07)
(0.00130527 3.73472e-07 3.06725e-07)
(0.00130299 2.04939e-07 3.24447e-07)
(0.00130057 2.54305e-07 3.2449e-07)
(0.00129803 -3.79509e-08 3.17233e-07)
(0.00129557 -1.65115e-07 -3.09432e-08)
(0.00129294 -2.40826e-07 3.06049e-07)
(0.00129054 -3.03946e-07 3.13081e-07)
(0.00128851 -2.23546e-07 1.14528e-07)
(0.00128626 3.72979e-07 2.95519e-07)
(0.00128374 3.82958e-07 1.04588e-06)
(0.00128157 1.48314e-07 1.47154e-07)
(0.0012789 1.02722e-07 2.43875e-07)
(0.00127631 -9.34959e-08 5.77138e-07)
(0.00127451 -3.10532e-07 3.19004e-07)
(0.00127243 -8.16028e-07 1.14202e-07)
(0.00126944 -1.37123e-06 2.78925e-09)
(0.00126654 -4.82877e-07 3.42609e-07)
(0.00126406 4.60508e-08 3.23474e-07)
(-0.00470039 0.0229892 0.0161603)
(-0.0149788 -0.0223087 -0.0828242)
(-0.00783981 -0.0036478 -0.00342579)
(0.00699319 -0.0030512 0.000717928)
(0.0131423 -0.00670723 0.00661012)
(0.0100057 0.0109544 0.00193291)
(0.00282372 -0.00284548 1.71746e-05)
(0.00144866 2.60457e-05 1.57167e-06)
(0.00148928 1.86167e-05 5.50131e-07)
(0.00135347 7.98487e-06 3.5058e-07)
(0.0013701 2.49572e-06 3.01312e-07)
(0.00136023 5.3283e-07 3.1165e-07)
(0.00135743 1.08257e-07 1.30688e-07)
(0.0013535 -2.44863e-07 3.36525e-07)
(0.00135105 -3.8303e-07 3.61005e-07)
(0.00134879 -4.50319e-07 3.41545e-07)
(0.00134594 -2.42183e-07 3.36312e-07)
(0.00134317 -1.17472e-07 2.8899e-07)
(0.00134095 3.84542e-08 3.03144e-07)
(0.00133807 5.37891e-07 4.18532e-07)
(0.00133573 5.22173e-07 2.62427e-07)
(0.00133347 3.57234e-07 7.27675e-07)