/*--------------------------------*- C++ -*----------------------------------*\
| =========                 |                                                 |
| \\      /  F ield         | OpenFOAM: The Open Source CFD Toolbox           |
|  \\    /   O peration     | Version:  5.0                                   |
|   \\  /    A nd           | Web:      www.OpenFOAM.org                      |
|    \\/     M anipulation  |                                                 |
\*---------------------------------------------------------------------------*/
FoamFile
{
    version     2.0;
    format      ascii;
    class       volVectorField;
    location    "2.2";
    object      U_0;
}
// * * * * * * * * * * * * * * * * * * * * * * * * * * * * * * * * * * * * * //

dimensions      [0 1 -1 0 0 0 0];

internalField   nonuniform List<vector> 
7975
(
(0.00798679 0.0130373 0.0052431)
(-0.00968058 0.0148735 -0.00331634)
(-0.000911372 -0.00173567 -0.00321512)
(-0.00505626 -0.0024975 0.00118234)
(-0.00469504 -0.00335438 -0.000933936)
(-0.000917978 6.45898e-05 -2.14118e-06)
(0.000481115 -2.01129e-05 -3.50757e-08)
(0.000838437 -2.49552e-05 -1.80518e-06)
(0.000802042 -1.11213e-05 -2.11638e-07)
(0.000810457 -7.03863e-06 9.96434e-08)
(0.000811161 -3.89234e-06 1.00841e-07)
(0.000811718 -2.34461e-06 7.43661e-08)
(0.000811884 -1.25304e-06 6.67154e-08)
(0.000811575 -7.50554e-07 6.44153e-08)
(0.000810544 -4.84801e-07 5.16512e-08)
(0.00080944 -2.23003e-07 1.53584e-08)
(0.000808176 -3.58923e-07 5.52695e-08)
(0.000806656 -3.37832e-07 5.92655e-08)
(0.000805223 -3.18877e-07 5.94003e-08)
(0.000803958 -3.56525e-07 8.19423e-08)
(0.000802632 -2.76447e-07 5.66977e-08)
(0.000800965 -1.37722e-08 7.59058e-08)
(0.000799525 -4.81282e-09 2.16782e-08)
(0.00079806 -5.30583e-09 7.22996e-08)
(0.000796358 1.57054e-07 4.22629e-09)
(0.000795057 2.9813e-07 1.06333e-07)
(0.000793925 2.45689e-07 6.98461e-08)
(0.000792729 8.69442e-08 4.49768e-08)
(0.000790613 1.69005e-07 5.0797e-08)
(0.000788633 -2.78549e-07 6.54354e-08)
(0.000787515 -6.90307e-07 -5.71166e-08)
(0.000785886 -5.79687e-07 6.59704e-09)
(0.000784571 -4.78433e-07 8.23637e-08)
(0.000783672 -2.33889e-07 4.61979e-08)
(0.000782168 7.42189e-08 3.65275e-08)
(0.000780495 -1.25352e-07 4.40013e-08)
(0.000778956 -2.31854e-07 3.24801e-08)
(0.000777361 4.61886e-08 1.36674e-08)
(0.000775899 3.05015e-07 -9.05102e-08)
(0.000774811 3.9337e-07 6.32687e-08)
(0.000773606 5.79645e-08 2.65328e-08)
(0.000772007 -4.05462e-08 6.43831e-08)
(0.000770797 -2.55383e-07 9.33584e-08)
(0.000769351 -2.79083e-07 2.40401e-07)
(0.000767742 -1.7515e-07 3.92075e-08)
(0.000766377 -1.66418e-07 2.91762e-08)
(0.000765056 -2.93757e-07 5.02004e-08)
(0.000763843 -4.95324e-07 1.96813e-07)
(0.000762087 -2.89148e-07 -2.00635e-08)
(0.000760205 -2.14515e-07 6.35149e-08)
(0.00489128 -0.0159213 0.00186162)
(0.0150225 -0.00386997 0.000714412)
(0.0145977 0.0192824 0.00152437)
(-0.000498029 -0.00232827 0.00190185)
(0.00159944 -0.00343873 -0.000169616)
(0.00131702 0.000646563 2.75297e-05)
(0.000321426 -1.69409e-05 3.43709e-06)
(0.00084519 -3.65206e-05 -2.60365e-06)
(0.000820512 4.16756e-06 -1.46831e-07)
(0.000815815 -8.16814e-06 5.91864e-08)
(0.000815559 -4.80124e-06 3.41441e-08)
(0.000814446 -3.69434e-06 3.57634e-08)
(0.000813449 -2.30793e-06 2.40787e-08)
(0.000812101 -1.47891e-06 4.19445e-08)
(0.000811074 -9.28404e-07 4.80889e-08)
(0.000809554 -4.77247e-07 4.07653e-08)
(0.000808016 -1.0459e-07 5.37212e-08)
(0.0008069 1.67172e-07 7.8566e-08)
(0.000805516 4.26082e-07 6.05659e-08)
(0.000804008 2.69326e-07 2.87312e-08)
(0.000802627 2.10058e-07 8.40941e-08)
(0.000801091 1.89331e-07 5.1409e-08)
(0.000799406 4.72379e-07 1.41761e-07)
(0.000798175 2.9912e-07 3.90239e-08)
(0.000796868 1.81612e-07 6.89188e-08)
(0.000795105 2.12575e-07 6.46726e-08)
(0.00079339 1.00734e-07 1.23777e-07)
(0.000791954 -1.70453e-07 4.64393e-08)
(0.000790339 -7.97562e-07 6.38811e-08)
(0.000788564 -4.33387e-07 7.34768e-08)
(0.000787387 -4.05424e-07 1.30901e-07)
(0.0007863 -2.34896e-07 4.68614e-08)
(0.000785005 3.53417e-07 1.92397e-07)
(0.000783856 4.88664e-07 2.39712e-07)
(0.000782136 -1.20314e-08 4.74901e-08)
(0.000780353 8.11576e-08 3.44467e-08)
(0.000779147 1.18289e-07 5.65591e-08)
(0.00077779 1.68966e-07 5.45302e-08)
(0.000776209 3.16683e-07 3.30118e-08)
(0.000774562 4.45578e-07 7.87101e-09)
(0.000773078 7.43164e-08 6.28071e-08)
(0.000771727 -1.7877e-07 6.74273e-08)
(0.000770411 -5.21202e-07 2.25066e-08)
(0.000769269 -3.26484e-07 1.00403e-07)
(0.000767886 -1.06705e-07 5.85247e-08)
(0.000766284 -6.63682e-08 6.21573e-08)
(0.00076499 9.96534e-08 7.31958e-08)
(0.000763726 -1.14583e-07 5.70172e-08)
(0.000762081 -3.88019e-07 8.1998e-08)
(0.000761054 -2.5037e-07 2.67171e-08)
(-0.0102248 -0.0113674 0.000708055)
(0.00418898 -0.00206129 0.00121006)
(0.00825467 -0.00713607 0.00153329)
(-0.000694947 0.000982943 0.000432988)
(-0.00536973 -0.00457456 -0.000153915)
(-0.000346245 0.000891587 -6.28338e-05)
(0.000463387 -0.000201901 3.85197e-05)
(0.000414643 -1.28361e-05 -8.03951e-07)
(0.000854757 -7.72656e-06 -1.60298e-06)
(0.000799296 -1.37285e-05 -3.97404e-07)
(0.000816744 -7.70222e-06 1.98347e-07)
(0.000814829 -5.30117e-06 4.72178e-08)
(0.000814653 -3.4682e-06 6.12826e-08)
(0.000813299 -2.1754e-06 5.17004e-08)
(0.000811796 -1.32084e-06 5.31263e-08)
(0.000810469 -9.19861e-07 5.35916e-08)
(0.000808981 -4.31845e-07 -3.93435e-08)
(0.000807317 -1.84757e-07 2.66344e-08)
(0.000805347 -2.06894e-07 9.42672e-08)
(0.000803684 -8.10122e-08 4.12322e-08)
(0.00080253 -8.89095e-09 9.39838e-08)
(0.000801289 -7.29825e-08 4.68427e-08)
(0.000799658 -1.08593e-08 5.07343e-08)
(0.000797693 4.00241e-08 -9.22884e-08)
(0.000796247 -2.59223e-08 4.74672e-08)
(0.000794954 -1.16825e-07 3.03119e-08)
(0.000793445 -1.405e-07 5.92803e-08)
(0.000791609 -7.70507e-08 6.4137e-08)
(0.000790289 -5.1185e-08 -4.60887e-08)
(0.000789128 4.81394e-07 2.00919e-08)
(0.000787766 7.43105e-07 8.63067e-08)
(0.000786835 6.76435e-07 6.50872e-08)
(0.000785473 4.47427e-07 2.92185e-07)
(0.000783212 3.32733e-07 1.33766e-07)
(0.000781656 -1.30013e-08 8.99018e-08)
(0.000780657 1.07492e-07 5.3708e-08)
(0.000779064 1.11775e-07 5.43416e-08)
(0.000777606 1.13834e-08 4.60149e-08)
(0.000776242 6.46277e-08 4.69627e-08)
(0.000774505 -8.17637e-08 3.02334e-08)
(0.000772825 7.90134e-09 7.17013e-08)
(0.000771264 -5.15984e-08 5.49749e-08)
(0.000770617 4.97566e-07 4.4889e-08)
(0.000769872 2.59173e-07 7.88264e-08)
(0.000768071 1.54523e-07 7.55194e-08)
(0.000766636 2.11136e-07 5.36452e-08)
(0.000764997 4.2237e-07 1.77371e-07)
(0.000763235 1.91709e-07 6.37304e-08)
(0.000761924 1.18978e-07 6.24341e-08)
(0.000761001 8.12155e-08 6.88584e-08)
(0.00393974 0.00538219 0.000198392)
(0.00194242 0.00110145 -1.46798e-05)
(0.0019395 -0.000596302 0.000874566)
(0.011329 -0.00107345 -0.000272562)
(-0.0126263 0.00149726 -0.000264005)
(0.00238376 -0.00157435 1.86017e-05)
(0.000777062 -3.72483e-05 0.000127348)
(0.000440701 -6.2694e-05 -1.23362e-06)
(0.000892295 -3.61655e-05 -1.36901e-06)
(0.000815817 -1.96902e-05 -4.52972e-07)
(0.000826094 -1.01708e-05 1.65728e-07)
(0.000819738 -5.53191e-06 -9.37583e-09)
(0.000817358 -3.16546e-06 5.73192e-08)
(0.000814787 -1.77788e-06 5.05955e-08)
(0.000812645 -9.8138e-07 4.94824e-08)
(0.000810666 -5.90033e-07 5.0856e-08)
(0.000808935 -5.3204e-07 4.92804e-08)
(0.000807181 -4.82559e-07 1.00922e-07)
(0.000805646 -5.62338e-07 3.45985e-08)
(0.000804256 -4.88803e-07 2.54553e-08)
(0.000802637 -2.81993e-07 7.30705e-08)
(0.000801088 -2.78457e-07 5.08294e-08)
(0.000799546 -3.4657e-07 -1.40756e-08)
(0.000798155 -1.11038e-07 5.51487e-08)
(0.000796671 6.37733e-08 2.6177e-08)
(0.000794962 1.74413e-07 2.94254e-08)
(0.00079344 2.22681e-07 5.92665e-08)
(0.000792065 3.25187e-07 7.89277e-08)
(0.000791035 8.24749e-07 9.67407e-08)
(0.000789553 6.13481e-07 2.22789e-08)
(0.000787624 7.84308e-07 4.4458e-08)
(0.000785925 8.43288e-07 3.94703e-09)
(0.000784571 2.59186e-07 4.20106e-08)
(0.000783278 -5.35173e-08 4.86241e-08)
(0.000781853 2.13215e-07 4.76813e-08)
(0.000780508 7.81095e-08 2.18836e-07)
(0.000779027 1.15499e-08 5.56124e-08)
(0.000777731 3.17572e-08 5.09388e-08)
(0.000776092 -2.66005e-07 4.36171e-09)
(0.000774491 -1.51792e-07 4.69963e-08)
(0.000773116 1.26489e-07 5.09403e-08)
(0.000772337 4.56213e-07 3.53745e-08)
(0.000770796 7.10688e-07 4.12498e-08)
(0.000768836 3.63435e-07 1.08774e-08)
(0.000767823 4.2941e-08 4.12552e-08)
(0.000766615 1.66321e-08 4.1058e-08)
(0.000764962 -6.94171e-08 7.76809e-08)
(0.000763344 5.98692e-08 2.70716e-08)
(0.00076194 2.51679e-07 4.16289e-08)
(0.000760803 2.18427e-07 5.22358e-08)
(-0.00538012 -0.00643025 0.000297702)
(0.00821067 0.00325927 -0.000727482)
(-0.00981834 -0.0108006 0.00123386)
(-0.0136565 0.00251147 -0.000652577)
(-0.00111408 0.00390067 0.000207103)
(-0.00039828 0.00201281 -3.48179e-05)
(0.00170878 0.000130027 8.17317e-06)
(0.000525495 -4.28223e-05 -1.27787e-06)
(0.000932595 -1.17452e-05 -1.32411e-06)
(0.000831844 -6.02157e-06 -5.86641e-07)
(0.000834478 -2.89695e-06 1.6053e-07)
(0.0008236 -1.59243e-06 5.49238e-08)
(0.00081935 -7.41075e-07 1.4243e-07)
(0.000816031 -4.45511e-07 4.8722e-08)
(0.00081328 -2.66491e-07 4.23034e-08)
(0.00081103 -8.01835e-08 4.90727e-08)
(0.000809115 2.57689e-08 5.51545e-08)
(0.000807281 -3.08905e-08 5.23514e-08)
(0.000805342 1.49865e-07 5.5574e-08)
(0.000804038 2.89337e-07 1.12996e-07)
(0.000802795 -3.65975e-07 7.26088e-08)
(0.000801211 1.22379e-07 2.99661e-07)
(0.00079987 1.01525e-07 9.36843e-08)
(0.000798207 1.71018e-07 1.02929e-07)
(0.000796604 8.15951e-08 7.48894e-08)
(0.000795151 5.44399e-08 6.49268e-08)
(0.000793631 1.73381e-07 6.73991e-08)
(0.000792356 2.20474e-07 2.84512e-08)
(0.000790643 2.2431e-07 -3.9967e-09)
(0.00078907 5.82274e-08 2.40721e-08)
(0.000788046 -2.07696e-09 5.02643e-08)
(0.000786173 -2.54802e-07 4.65048e-08)
(0.000784348 9.99481e-08 6.06014e-08)
(0.000783153 3.49086e-08 5.2123e-08)
(0.000781819 1.33475e-07 6.60906e-08)
(0.000780404 4.19069e-09 4.98068e-08)
(0.000779006 -6.51871e-08 4.26033e-08)
(0.00077726 -1.30688e-07 6.633e-08)
(0.000776014 -1.6189e-07 1.03701e-07)
(0.000774997 5.42715e-08 8.88806e-08)
(0.000773584 1.93485e-07 8.71879e-08)
(0.000771991 5.26394e-07 1.52578e-07)
(0.000770495 1.41413e-07 5.74661e-08)
(0.000769034 1.22388e-07 -1.18305e-07)
(0.000767635 3.78131e-08 3.30486e-08)
(0.000766495 -1.65187e-07 4.74303e-08)
(0.00076505 -4.32044e-07 -3.43055e-08)
(0.000763635 -3.77332e-07 1.36582e-08)
(0.000762116 -3.1593e-07 1.79191e-08)
(0.000760416 8.80915e-08 9.02235e-08)
(-0.0128832 0.0079505 -0.00233598)
(0.00415804 0.00217955 0.00156872)
(-0.0215247 -0.00657053 0.00130828)
(0.00198787 0.00206966 0.000139144)
(-0.0135333 -0.00820181 0.000861834)
(0.00861215 -0.0001991 0.00017749)
(0.00133154 -4.19798e-05 -5.1385e-06)
(0.000522737 1.88688e-05 -7.59203e-07)
(0.000918043 2.55864e-05 -1.3176e-06)
(0.000826849 1.41449e-05 -5.52943e-07)
(0.00083163 7.41792e-06 1.64358e-07)
(0.000822429 4.06684e-06 1.83293e-08)
(0.000818789 2.45057e-06 -2.33165e-09)
(0.000815378 1.41021e-06 4.38636e-08)
(0.0008131 9.5116e-07 5.84276e-08)
(0.00081103 5.07647e-07 5.3662e-08)
(0.000808996 3.49816e-07 4.76503e-08)
(0.000807335 3.65853e-07 5.85875e-08)
(0.000806045 3.99393e-07 1.88993e-08)
(0.00080361 7.16797e-07 2.91985e-08)
(0.000802427 9.62995e-07 1.52474e-07)
(0.000801672 5.02524e-07 1.18546e-07)
(0.000799606 2.52797e-07 1.6786e-07)
(0.00079813 1.09118e-07 6.46473e-08)
(0.000796525 1.08255e-07 6.78129e-08)
(0.000795076 6.23018e-08 3.54057e-08)
(0.000793646 -5.81865e-08 3.63761e-08)
(0.000792127 -1.77684e-07 1.83457e-08)
(0.000790829 -1.81151e-07 1.03824e-07)
(0.000789268 -2.52098e-07 7.20104e-08)
(0.000787232 -5.38808e-07 -7.78855e-09)
(0.000786051 -5.02253e-07 -1.69877e-08)
(0.000784932 -3.20856e-07 1.19649e-08)
(0.000783318 -1.57954e-07 5.24501e-08)
(0.000781814 -1.54791e-07 5.39708e-08)
(0.00078026 -6.29663e-08 4.61099e-08)
(0.000778859 -5.57426e-08 -6.71769e-09)
(0.000777611 2.59849e-08 9.84275e-08)
(0.000776324 2.45332e-07 1.09068e-07)
(0.000774935 7.94909e-08 6.80533e-08)
(0.000773705 1.58746e-07 8.95395e-08)
(0.00077227 1.0823e-07 -2.30864e-08)
(0.00077029 1.3054e-07 1.97852e-08)
(0.000768707 -8.81592e-09 5.15941e-08)
(0.000767464 4.18102e-08 5.90887e-08)
(0.000766031 -1.63957e-07 4.56458e-08)
(0.000764701 -5.21973e-07 -3.49102e-07)
(0.000763493 -5.41185e-07 3.45014e-08)
(0.000762523 -4.53333e-07 3.06498e-07)
(0.000761088 -1.57079e-07 1.81009e-07)
(-0.0109373 -4.93911e-05 0.000509387)
(-0.00953625 -0.0181853 0.00119102)
(0.00151703 -0.00292741 -0.00513836)
(-0.00219545 -0.000848108 0.00104653)
(-0.00985494 0.00418775 8.35756e-05)
(0.00951104 -0.00487567 -4.76316e-05)
(0.000984469 -0.000270741 5.25915e-05)
(0.000452085 5.13514e-05 5.0955e-07)
(0.000873016 3.30279e-05 -1.3443e-06)
(0.000809032 2.01338e-05 -4.59613e-07)
(0.000821824 1.10347e-05 1.75105e-07)
(0.000817362 6.50914e-06 3.29782e-08)
(0.000816014 3.69334e-06 4.09378e-08)
(0.000814147 2.19261e-06 5.08515e-08)
(0.000812147 1.1775e-06 4.14511e-08)
(0.000810276 7.43195e-07 5.19081e-08)
(0.000808936 4.79345e-07 5.24621e-08)
(0.000807341 3.65009e-07 5.40076e-08)
(0.000805777 3.55302e-07 4.87076e-08)
(0.000804737 1.83969e-07 5.22201e-08)
(0.000802522 7.75113e-07 -4.23224e-08)
(0.000800319 2.17897e-07 4.1083e-08)
(0.000799376 3.19775e-07 8.59653e-09)
(0.000798025 1.09358e-07 4.67042e-08)
(0.000796544 9.79998e-08 1.1395e-07)
(0.000794943 1.90873e-07 1.74611e-07)
(0.000793331 -5.1009e-08 5.28915e-08)
(0.000792203 -7.98717e-08 6.84366e-08)
(0.000790552 -4.10224e-07 3.4912e-08)
(0.000788626 -6.39227e-07 2.53224e-08)
(0.000787737 -2.23503e-07 1.57745e-07)
(0.000786449 4.16697e-08 1.60254e-07)
(0.000784781 -5.56737e-08 4.29381e-08)
(0.000783363 -8.89272e-08 6.31608e-08)
(0.000781939 -1.23953e-07 2.59649e-08)
(0.000780528 -4.17589e-08 8.31033e-08)
(0.000779117 -1.4209e-09 4.31564e-08)
(0.000777636 1.04813e-07 5.42927e-08)
(0.00077608 1.66122e-07 4.67546e-08)
(0.000774888 3.19679e-07 5.60962e-09)
(0.000773619 4.94474e-08 4.28438e-08)
(0.000771954 -2.19629e-07 4.87626e-09)
(0.000770349 -2.67211e-07 5.92615e-08)
(0.000768923 -1.36997e-07 5.0569e-08)
(0.000767442 -1.18616e-07 6.86097e-09)
(0.000765792 -1.95789e-08 4.83187e-08)
(0.000764583 -4.34578e-08 -1.76678e-07)
(0.000763726 -2.92995e-07 6.56467e-08)
(0.000762605 -1.39732e-07 1.99122e-07)
(0.000761177 -3.14143e-07 7.06437e-08)
(0.000675417 0.0181253 0.000545983)
(0.00741649 -8.92954e-05 -1.18722e-05)
(-0.0143813 -0.014932 6.85255e-05)
(-0.000508743 0.011824 -0.000365811)
(0.00152563 -0.00882912 0.000147625)
(0.0052523 0.00225771 3.13095e-05)
(0.00176002 -0.000513208 9.97532e-05)
(0.000457739 1.98478e-05 8.65334e-07)
(0.000849432 7.0779e-06 -1.27272e-06)
(0.000799206 1.3096e-05 -4.25301e-07)
(0.000814551 7.2586e-06 1.64998e-07)
(0.000813229 4.94994e-06 3.73733e-08)
(0.00081338 3.02186e-06 5.55453e-08)
(0.000812227 1.84893e-06 5.1762e-08)
(0.000811285 9.65671e-07 7.12631e-08)
(0.000810156 6.57818e-07 5.18354e-08)
(0.000808522 3.58004e-07 8.51107e-08)
(0.000807179 1.80846e-07 7.82422e-08)
(0.000805818 -1.91124e-08 7.64298e-08)
(0.000804133 -9.46148e-08 7.05304e-08)
(0.000802468 -5.4465e-07 4.13671e-08)
(0.000801101 -1.44898e-07 4.84114e-08)
(0.00079947 -2.1578e-07 4.99843e-08)
(0.000797852 -1.61228e-07 4.75885e-08)
(0.000796626 -3.06563e-07 7.61833e-08)
(0.000794889 -3.64323e-07 5.11118e-08)
(0.000793308 -7.88586e-08 1.50601e-08)
(0.000791681 -1.17808e-08 4.90195e-08)
(0.000790135 -2.3639e-07 4.91583e-08)
(0.000789507 2.25935e-07 -1.53656e-07)
(0.000788087 3.80318e-07 8.2063e-08)
(0.000786262 1.47498e-07 5.94203e-08)
(0.00078477 2.89158e-07 4.87957e-08)
(0.000783234 8.84725e-08 4.53804e-08)
(0.000781874 5.49655e-08 4.4844e-08)
(0.000780414 -1.50396e-07 7.06971e-08)
(0.000779042 -2.25889e-07 5.83274e-08)
(0.000777821 -1.8168e-07 1.3307e-08)
(0.000776592 8.51895e-08 3.99854e-08)
(0.000774788 1.52544e-07 7.28105e-08)
(0.00077303 -8.52701e-08 1.46418e-08)
(0.000771875 -1.6406e-07 4.72724e-08)
(0.000770395 -2.37695e-07 -6.72095e-08)
(0.000768894 -1.68336e-07 4.86404e-08)
(0.000767612 -6.75089e-08 5.24512e-08)
(0.000766126 9.87963e-08 4.56157e-08)
(0.00076436 4.63709e-07 5.78773e-08)
(0.000763375 5.81847e-07 7.25613e-08)
(0.000762505 1.27167e-07 4.36755e-08)
(0.000761653 -7.19594e-08 1.0257e-07)
(-0.00170123 0.00253519 -5.28788e-05)
(0.0065769 -0.00421927 0.00450601)
(-0.00726751 -0.000595822 -0.000934989)
(0.00951197 0.0050402 0.000259234)
(9.1456e-05 -0.00182755 -0.000295915)
(-0.000919216 -0.00158149 0.000101355)
(0.000444196 0.000185861 5.1883e-05)
(0.000828441 4.5201e-05 -2.23164e-06)
(0.000806544 -2.49168e-06 -1.90158e-07)
(0.000809263 6.65457e-06 1.1105e-07)
(0.000811648 3.45686e-06 4.37841e-08)
(0.000812071 2.72907e-06 4.13529e-08)
(0.000812139 1.76898e-06 4.89993e-08)
(0.000811579 1.17886e-06 4.95906e-08)
(0.00081066 8.94634e-07 5.22082e-08)
(0.000809517 4.79852e-07 1.22559e-07)
(0.000808341 2.85654e-07 1.34075e-08)
(0.000806871 1.88471e-07 2.1883e-09)
(0.000805435 2.0605e-08 6.16553e-08)
(0.000804083 -3.57689e-08 9.07038e-08)
(0.000802462 -1.238e-07 4.74315e-08)
(0.000800734 -2.53521e-07 8.45474e-08)
(0.000799358 -4.05628e-07 5.59682e-08)
(0.000797915 -3.15094e-07 5.26951e-08)
(0.000796293 -3.10727e-07 2.41601e-08)
(0.000795231 -4.26618e-07 6.26424e-08)
(0.000793774 -2.2756e-07 2.35241e-08)
(0.000792008 -1.50495e-07 2.18596e-07)
(0.00079085 6.80941e-08 1.07589e-07)
(0.000789396 3.78155e-07 4.77176e-08)
(0.000787637 1.72782e-07 2.75022e-07)
(0.000786333 1.16385e-07 4.63927e-08)
(0.000784706 -1.3269e-08 8.48444e-08)
(0.000783069 -4.48251e-08 -2.15737e-08)
(0.000781641 -7.07404e-08 2.84434e-08)
(0.000780178 5.54281e-08 4.30785e-08)
(0.00077908 1.86687e-07 6.49762e-08)
(0.000778026 -3.16972e-08 6.5846e-08)
(0.000776498 -3.73874e-07 8.59173e-08)
(0.000774674 -6.85557e-07 3.51337e-08)
(0.000773223 -3.08798e-07 4.9759e-08)
(0.000771765 -2.1462e-07 -1.9671e-08)
(0.000770345 -1.16385e-07 3.1239e-08)
(0.000769137 3.45192e-08 4.28028e-08)
(0.000767777 1.01429e-07 4.50572e-08)
(0.000766455 1.40048e-07 -1.09873e-09)
(0.000765184 3.46889e-07 6.80949e-08)
(0.000763302 9.73942e-07 2.75947e-08)
(0.000761788 6.25832e-07 -9.08793e-08)
(0.000761105 3.59351e-07 9.16288e-08)
(0.000207449 0.00200735 -0.000288643)
(0.0059841 -0.00174743 -0.000462625)
(0.000687419 0.00184822 -1.19783e-05)
(0.00171557 -0.0319435 0.000652832)
(0.0036371 0.00607979 -0.0041907)
(-0.000750142 0.000171 0.000232291)
(0.000265617 2.01897e-05 3.56062e-06)
(0.000807573 4.14048e-06 -2.21613e-06)
(0.000797907 -6.31436e-07 -5.04141e-08)
(0.000806743 6.16369e-07 8.56857e-08)
(0.00080967 2.95501e-07 7.63239e-08)
(0.000811136 2.09484e-07 5.43397e-08)
(0.00081145 9.59764e-10 6.026e-08)
(0.000811138 -2.35174e-09 -1.5688e-07)
(0.000810414 -7.04604e-09 5.13488e-08)
(0.000809396 -9.81862e-08 6.20596e-08)
(0.000808159 -7.11904e-08 5.00839e-08)
(0.000806848 -2.31312e-07 4.26184e-07)
(0.000805538 -2.44024e-07 2.02514e-08)
(0.000803954 -4.02705e-07 -3.15772e-11)
(0.000802198 -3.46411e-07 4.19533e-08)
(0.000800751 -2.685e-07 1.7489e-07)
(0.000799396 -1.62826e-07 5.04853e-08)
(0.000797974 -1.35973e-07 4.50971e-08)
(0.00079649 -4.70777e-08 4.45743e-10)
(0.000794997 -8.49665e-08 6.06359e-08)
(0.000793656 -1.8637e-07 1.1004e-07)
(0.000792051 3.47311e-08 5.09306e-08)
(0.000790796 3.90354e-07 -1.89231e-08)
(0.000789635 -1.53932e-07 9.61605e-08)
(0.000787758 -2.20394e-07 8.95433e-08)
(0.00078603 -2.53637e-07 5.78972e-08)
(0.000784569 -5.80905e-07 1.89328e-08)
(0.000783164 -3.65666e-07 1.09033e-07)
(0.000782 -1.01358e-07 4.43651e-08)
(0.000780736 5.40949e-08 7.70169e-08)
(0.000778933 1.51793e-07 2.55859e-08)
(0.000777121 -4.5028e-08 4.25926e-08)
(0.000775777 -3.812e-07 7.92296e-09)
(0.000774873 -5.25822e-07 6.60411e-08)
(0.000773622 -2.74281e-07 6.2076e-08)
(0.000772117 -2.21613e-07 2.94734e-08)
(0.000770707 -8.23308e-08 3.943e-08)
(0.000769165 1.402e-07 5.42538e-08)
(0.000767743 8.94625e-08 -3.40561e-08)
(0.00076643 1.14897e-07 -2.16001e-08)
(0.000765398 2.80279e-08 1.82036e-08)
(0.000763717 1.40525e-08 2.32908e-08)
(0.000761722 4.62505e-07 -3.55082e-08)
(0.000760426 2.60981e-07 6.87117e-08)
(-6.66556e-05 -0.0298618 -0.00781068)
(-0.0123124 0.0263442 -0.00697451)
(0.00315079 -0.0150348 0.00558352)
(0.0072623 0.00278586 0.000340549)
(0.0052028 0.013026 0.000139029)
(0.00848299 -0.00870478 -5.69785e-05)
(0.00144961 -4.82393e-05 5.96314e-06)
(0.00140884 -3.75711e-05 3.62158e-07)
(0.00134337 -1.59903e-05 3.26001e-07)
(0.00135453 -1.01428e-05 3.42389e-07)
(0.00135386 -5.5023e-06 3.86807e-07)
(0.00135359 -3.33199e-06 3.60675e-07)
(0.00135318 -1.75178e-06 5.77197e-07)
(0.00135212 -9.74527e-07 2.1539e-07)
(0.00135 -6.42169e-07 3.38085e-07)
(0.00134796 -2.71865e-07 2.60209e-07)
(0.00134572 -5.27848e-07 3.3771e-07)
(0.00134312 -5.11117e-07 1.54905e-07)
(0.00134067 -4.56269e-07 3.20245e-07)
(0.00133849 -5.21995e-07 3.92571e-07)
(0.00133625 -3.81602e-07 4.24431e-07)
(0.00133345 5.59302e-08 3.86804e-07)
(0.001331 4.68535e-08 2.72338e-07)
(0.00132859 -2.17834e-09 3.10007e-07)
(0.00132581 3.28026e-07 3.03092e-07)
(0.00132358 5.72878e-07 3.67196e-07)
(0.00132162 4.54774e-07 2.85395e-07)
(0.00131966 1.4721e-07 3.29343e-07)
(0.00131618 2.68547e-07 4.41164e-07)
(0.00131289 -5.21065e-07 3.93849e-07)
(0.00131097 -1.18269e-06 2.38921e-07)
(0.00130822 -9.90098e-07 1.64474e-07)
(0.00130601 -7.75671e-07 3.59612e-07)
(0.00130455 -3.20856e-07 4.06271e-07)
(0.0013021 1.68641e-07 3.15435e-07)
(0.00129929 -1.27761e-07 3.22221e-07)
(0.00129666 -3.0237e-07 3.10324e-07)
(0.00129392 1.40996e-07 2.54188e-07)
(0.00129161 6.01915e-07 6.04023e-08)
(0.00128985 6.59557e-07 3.34026e-07)
(0.0012877 1.21718e-07 2.79102e-07)
(0.00128502 -5.69552e-08 2.72085e-07)
(0.00128315 -5.12051e-07 3.74269e-07)
(0.00128066 -4.88066e-07 6.97068e-07)
(0.00127792 -3.16892e-07 3.34507e-07)
(0.00127567 -3.10393e-07 2.70639e-07)
(0.0012734 -4.56398e-07 2.92233e-07)
(0.0012714 -7.70469e-07 4.93243e-07)
(0.00126846 -4.94839e-07 2.22857e-07)
(0.00126534 -3.89643e-07 3.44256e-07)
(-0.00528569 -0.0148916 0.0172828)
(0.00970042 -0.0332303 0.00206847)
(0.000359945 0.0128399 0.012036)
(0.00970505 -0.0168876 0.0021785)
(0.0028022 0.00588121 -0.00155126)
(-0.000752498 -0.00130445 0.000291967)
(0.00160521 -6.4441e-05 4.9618e-06)
(0.00141624 -5.20517e-05 3.61205e-07)
(0.0013719 1.29201e-05 3.91913e-07)
(0.00136188 -9.51236e-06 5.17164e-07)
(0.00136012 -5.38809e-06 3.39778e-07)
(0.00135742 -4.45518e-06 3.38537e-07)
(0.00135524 -2.78082e-06 3.40081e-07)
(0.00135267 -1.83426e-06 3.35987e-07)
(0.00135072 -1.15302e-06 3.3721e-07)
(0.00134805 -5.54507e-07 2.78767e-07)
(0.00134542 -3.68398e-08 3.36895e-07)
(0.0013435 3.44435e-07 4.02275e-07)
(0.00134111 7.42228e-07 3.24253e-07)
(0.00133855 4.69523e-07 3.05679e-07)
(0.00133623 3.9744e-07 3.1232e-07)
(0.00133363 3.41087e-07 3.74357e-07)
(0.00133078 8.45967e-07 6.59927e-07)
(0.00132881 5.98395e-07 3.95127e-07)
(0.00132666 3.82049e-07 3.25883e-07)
(0.00132362 3.6747e-07 4.38051e-07)
(0.00132075 2.06309e-07 5.29165e-07)
(0.00131837 -2.71737e-07 3.3085e-07)
(0.00131566 -1.33597e-06 3.97033e-07)
(0.00131273 -7.37804e-07 3.4584e-07)
(0.00131081 -6.6533e-07 3.62562e-07)
(0.00130897 -3.94103e-07 3.06007e-07)
(0.00130683 6.78827e-07 6.21072e-07)
(0.00130487 8.91278e-07 8.5922e-07)
(0.001302 6.05702e-08 3.34977e-07)
(0.00129906 1.70221e-07 3.12713e-07)
(0.00129699 2.29243e-07 3.26157e-07)
(0.00129476 3.45818e-07 3.74356e-07)
(0.00129206 6.46515e-07 3.25699e-07)
(0.00128928 7.41472e-07 3.21927e-07)
(0.00128682 1.37217e-07 3.36973e-07)
(0.00128448 -2.77905e-07 3.65923e-07)
(0.00128232 -8.12565e-07 2.42519e-07)
(0.00128054 -6.66201e-07 3.47085e-07)
(0.00127822 -2.34626e-07 3.6467e-07)
(0.00127556 -2.01557e-07 3.0427e-07)
(0.00127339 1.54855e-07 2.93926e-07)
(0.0012712 -1.95598e-07 3.20517e-07)
(0.00126848 -6.14882e-07 3.67806e-07)
(0.00126674 -4.24382e-07 2.19183e-07)
(0.00564117 -0.00617555 -0.000767631)
(-0.00640705 -0.00557428 0.00540428)
(-0.0231585 -0.0369752 -0.000832113)
(-0.00549929 0.00236982 0.00793307)
(-0.00319447 -0.000980247 -0.000416542)
(-0.00186714 0.00240712 -0.000412291)
(0.00122779 0.000432467 5.02039e-05)
(0.00124723 -1.94695e-05 5.00645e-07)
(0.00142473 -4.52552e-06 -2.79385e-07)
(0.00133172 -1.73864e-05 3.30531e-07)
(0.00136014 -9.38056e-06 3.39728e-07)
(0.00135682 -6.64888e-06 3.38207e-07)
(0.00135645 -4.40796e-06 3.38542e-07)
(0.00135415 -2.77567e-06 3.3862e-07)
(0.0013516 -1.67318e-06 3.37787e-07)
(0.00134935 -1.20343e-06 3.36001e-07)
(0.00134684 -5.24471e-07 2.30787e-07)
(0.00134408 -2.02653e-07 2.2118e-07)
(0.00134082 -3.18478e-07 3.84773e-07)
(0.00133806 -1.11566e-07 3.25201e-07)
(0.00133609 -2.70804e-09 3.47685e-07)
(0.001334 -8.45415e-08 3.3205e-07)
(0.00133132 5.40397e-08 4.19912e-07)
(0.001328 1.91578e-07 -1.20681e-07)
(0.00132552 -2.605e-08 3.40999e-07)
(0.00132336 -1.50534e-07 3.06414e-07)
(0.00132082 -1.7486e-07 3.52039e-07)
(0.00131773 -5.89467e-08 3.3014e-07)
(0.0013156 -3.72641e-08 1.49214e-07)
(0.00131374 8.52811e-07 2.52203e-07)
(0.0013114 1.25566e-06 3.29976e-07)
(0.0013099 1.13813e-06 3.19161e-07)
(0.00130761 7.49522e-07 8.04455e-07)
(0.00130377 5.39358e-07 4.55422e-07)
(0.00130119 -1.13738e-08 3.70234e-07)
(0.0012995 1.6797e-07 3.36772e-07)
(0.00129688 1.79781e-07 2.82791e-07)
(0.00129444 2.49284e-08 3.42066e-07)
(0.0012921 6.43572e-08 3.3317e-07)
(0.00128921 -1.19693e-07 3.14272e-07)
(0.00128642 -1.07925e-08 3.26348e-07)
(0.00128383 -4.13768e-08 3.41651e-07)
(0.00128267 8.86979e-07 2.88744e-07)
(0.00128139 5.58012e-07 2.75746e-07)
(0.00127851 3.69028e-07 3.51714e-07)
(0.00127616 4.2435e-07 3.16957e-07)
(0.00127341 6.92287e-07 5.93799e-07)
(0.00127044 3.67321e-07 2.68719e-07)
(0.00126818 2.04781e-07 3.0506e-07)
(0.00126663 1.40101e-07 2.98151e-07)
(-0.00421171 -0.00362541 -0.00282472)
(0.00548019 -0.00555899 -0.000844118)
(-0.00736922 -0.0169724 0.000738422)
(-0.000717307 -0.00319748 0.00226573)
(-0.0095687 -0.00280011 -0.00167388)
(0.00456762 -0.00662045 -0.000822091)
(0.000902424 -0.00067736 0.000192138)
(0.0013097 -0.000165044 5.07566e-07)
(0.00148147 -5.18985e-05 3.05823e-07)
(0.00135571 -2.76728e-05 2.73027e-07)
(0.00137351 -1.38249e-05 3.42908e-07)
(0.00136361 -7.30011e-06 3.14065e-07)
(0.00136007 -4.10563e-06 3.39176e-07)
(0.00135608 -2.24065e-06 3.38954e-07)
(0.00135268 -1.17495e-06 3.37746e-07)
(0.00134948 -6.81085e-07 3.36847e-07)
(0.00134667 -6.97001e-07 3.42726e-07)
(0.00134376 -6.60354e-07 3.86177e-07)
(0.00134122 -8.60126e-07 3.24362e-07)
(0.00133894 -7.45617e-07 2.96243e-07)
(0.00133626 -4.48134e-07 3.69958e-07)
(0.0013337 -4.26384e-07 3.3491e-07)
(0.00133112 -5.96145e-07 2.11533e-07)
(0.00132871 -2.38327e-07 3.66865e-07)
(0.00132623 6.32919e-08 2.73817e-07)
(0.00132344 2.7186e-07 2.70418e-07)
(0.00132086 3.81357e-07 3.89377e-07)
(0.00131854 6.23036e-07 3.77219e-07)
(0.0013168 1.47135e-06 3.82938e-07)
(0.00131434 1.09177e-06 4.77139e-07)
(0.00131116 1.33183e-06 5.2241e-07)
(0.00130833 1.45358e-06 1.50148e-07)
(0.00130608 4.34739e-07 2.77235e-07)
(0.00130392 -6.77113e-08 3.24428e-07)
(0.00130153 3.43595e-07 3.29767e-07)
(0.0012993 1.28732e-07 5.197e-07)
(0.00129682 9.60335e-09 3.28875e-07)
(0.00129462 2.05787e-08 3.29823e-07)
(0.00129188 -4.60694e-07 2.11517e-07)
(0.00128918 -2.70381e-07 2.53837e-07)
(0.00128692 1.85633e-07 2.5206e-07)
(0.0012856 7.55084e-07 3.00636e-07)
(0.00128306 1.17574e-06 3.66662e-07)
(0.00127988 6.90387e-07 2.19843e-07)
(0.00127805 1.3959e-07 2.57973e-07)
(0.00127596 7.28822e-08 3.17935e-07)
(0.00127331 -9.89652e-08 3.7118e-07)
(0.00127058 1.30777e-07 1.81315e-07)
(0.00126819 3.966e-07 3.17481e-07)
(0.00126631 3.80223e-07 2.42749e-07)
(-0.00500393 -0.00831729 0.00249548)
(-0.0129955 0.0200988 -0.00790639)
(0.00990463 -0.00958705 -0.00195932)
(0.00142253 -0.00519953 -0.000875984)
(0.00326139 -0.00146269 0.00113163)
(-0.00115568 0.00367569 -0.000863108)
(0.000663976 -0.000751798 -4.4631e-05)
(0.00154072 -0.000113986 2.82557e-06)
(0.00154297 -1.53176e-05 6.14365e-07)
(0.00137931 -7.63249e-06 4.27676e-07)
(0.00138563 -3.42199e-06 3.64511e-07)
(0.00136897 -1.84366e-06 3.83834e-07)
(0.00136277 -7.28689e-07 3.86395e-07)
(0.00135781 -4.48867e-07 3.39243e-07)
(0.00135354 -2.90257e-07 3.38784e-07)
(0.00134994 -6.22138e-08 3.57655e-07)
(0.00134686 8.80951e-08 3.4348e-07)
(0.00134388 -4.69928e-08 3.34804e-07)
(0.00134072 2.69698e-07 3.20825e-07)
(0.00133857 4.67398e-07 3.1781e-07)
(0.00133649 -5.29613e-07 3.68975e-07)
(0.00133382 1.92067e-07 7.45639e-07)
(0.00133156 1.47558e-07 3.92165e-07)
(0.00132883 2.26069e-07 3.93612e-07)
(0.00132615 1.35733e-07 2.61941e-07)
(0.00132375 2.34452e-08 3.67489e-07)
(0.00132126 2.71729e-07 3.83663e-07)
(0.00131909 3.89054e-07 3.14663e-07)
(0.00131618 4.67456e-07 2.67217e-07)
(0.00131355 2.46276e-07 3.01058e-07)
(0.00131184 8.43571e-08 3.45149e-07)
(0.00130877 -3.60381e-07 3.23438e-07)
(0.0013057 2.47698e-07 3.39085e-07)
(0.00130366 1.06223e-07 3.29148e-07)
(0.00130144 2.54693e-07 3.36816e-07)
(0.00129908 5.00365e-10 3.29621e-07)
(0.00129674 -1.36508e-07 3.54074e-07)
(0.00129385 -2.30991e-07 3.24192e-07)
(0.00129174 -2.85729e-07 4.44156e-07)
(0.00129002 3.61238e-08 3.08931e-07)
(0.0012877 3.29509e-07 4.70023e-07)
(0.00128506 8.08482e-07 5.32428e-07)
(0.00128258 2.12613e-07 3.00165e-07)
(0.00128009 1.48286e-07 -2.21982e-07)
(0.00127774 -4.94625e-08 3.04909e-07)
(0.00127586 -3.19259e-07 3.17957e-07)
(0.00127348 -7.87597e-07 1.33922e-07)
(0.00127105 -7.41114e-07 3.03893e-07)
(0.00126848 -4.93947e-07 3.2679e-07)
(0.00126566 1.55258e-07 4.1224e-07)
(0.00101975 0.00576005 0.00860899)
(-0.0256348 -0.0323104 -0.0308373)
(-0.00681373 -0.00484424 -0.00227585)
(0.0076229 -0.00294922 0.000633783)
(0.0138354 -0.00490615 0.00604867)
(0.00937759 0.0100258 0.00189019)
(0.00290545 -0.00280096 1.43389e-05)
(0.0015197 5.19975e-05 1.84972e-06)
(0.00151761 3.98198e-05 5.60191e-07)
(0.00137049 2.17648e-05 3.78172e-07)
(0.00138072 1.12667e-05 3.03231e-07)
(0.00136696 6.10809e-06 3.47005e-07)
(0.0013618 3.69194e-06 2.56941e-07)
(0.00135662 2.10065e-06 3.38416e-07)
(0.00135316 1.4004e-06 3.58573e-07)
(0.00134995 7.10661e-07 3.41006e-07)
(0.00134668 5.01915e-07 3.37045e-07)
(0.00134398 5.54968e-07 3.66075e-07)
(0.00134186 6.4011e-07 2.96809e-07)
(0.00133794 1.13398e-06 4.08978e-07)
(0.00133592 1.47187e-06 3.44144e-07)