/*--------------------------------*- C++ -*----------------------------------*\
| =========                 |                                                 |
| \\      /  F ield         | OpenFOAM: The Open Source CFD Toolbox           |
|  \\    /   O peration     | Version:  5.0                                   |
|   \\  /    A nd           | Web:      www.OpenFOAM.org                      |
|    \\/     M anipulation  |                                                 |
\*---------------------------------------------------------------------------*/
FoamFile
{
    version     2.0;
    format      ascii;
    class       surfaceVectorField;
    location    "2.2";
    object      Uf;
}
// * * * * * * * * * * * * * * * * * * * * * * * * * * * * * * * * * * * * * //

dimensions      [0 1 -1 0 0 0 0];

internalField   nonuniform List<vector> 
23800
(
(0.00457792 -0.00255556 0.00284584)
(-0.013388 0.0147163 0.00265793)
(0.000534198 0.000317185 0.00140088)
(-0.0220519 0.0200372 0.00250961)
(-0.0139377 0.0120901 0.00233236)
(-0.0138103 0.00252074 -0.015593)
(0.00647739 -0.00361594 -0.00577662)
(-0.0208137 0.00772025 -0.02576)
(0.00829446 0.00725086 0.0425022)
(-0.0145969 -0.0061693 0.000636957)
(-0.0229847 -0.00315284 0.00231193)
(-0.0331981 -0.0146917 -0.00102301)
(-0.0315955 -0.003813 -0.000611113)
(-0.00666238 0.00566461 -0.00335374)
(0.0226965 -0.0240125 -0.0011786)
(0.00739489 -0.00143175 -0.00555089)
(-0.00271543 0.0267889 -0.00171068)
(-0.0116385 -0.00262974 -0.000278536)
(-0.00336808 -0.00563274 0.00167784)
(0.0013216 0.000941735 0.00152114)
(-0.00330643 -0.0010761 0.000319578)
(-0.00657547 0.00278745 -0.000731841)
(0.0030352 -0.00249704 -5.43746e-05)
(0.00822034 -0.00321669 0.000669486)
(0.0136917 0.00705896 -6.53889e-05)
(-0.00792114 0.0154434 0.00154363)
(-0.00151332 0.00511873 3.41483e-05)
(0.00387807 -0.00412568 -0.000476714)
(0.0102969 -0.00732391 0.00279043)
(0.00232362 -0.0071816 0.00197195)
(0.00165645 0.00509514 -0.00043125)
(-0.00194556 -0.000142184 -0.000538703)
(-0.0038227 0.00120595 -0.0012876)
(-0.000499282 0.00443068 5.03553e-05)
(8.77311e-06 -0.000193079 4.47304e-05)
(-0.000679675 0.000578288 1.31989e-05)
(9.56689e-05 -0.00197312 -7.19616e-05)
(0.000348651 -3.62765e-06 1.54245e-05)
(0.000499057 1.98768e-05 -2.48291e-06)
(0.000529522 2.40786e-05 1.39715e-06)
(0.000869576 3.55339e-05 4.3609e-06)
(0.000437745 -6.7297e-06 4.13581e-06)
(0.000594116 -2.97154e-05 3.93026e-05)
(0.000850641 -3.23542e-05 1.38489e-05)
(0.000831742 1.01276e-05 -9.91183e-07)
(0.000854761 7.35856e-06 -2.17673e-06)
(0.00115574 1.12645e-05 -1.28094e-06)
(0.000611342 1.29483e-05 -4.12312e-06)
(0.000596535 1.84962e-05 -4.40828e-06)
(0.00102991 1.88766e-05 -4.3252e-06)
(0.000996576 3.10692e-05 -4.56361e-06)
(0.000822799 7.3117e-06 -1.73036e-08)
(0.000821203 1.73569e-05 -1.3765e-07)
(0.00109322 1.06576e-05 1.46842e-07)
(0.000819827 4.38205e-06 1.05204e-07)
(0.000819814 6.51895e-06 4.87025e-08)
(0.00109544 5.9232e-06 1.94749e-07)
(0.000816856 2.77499e-06 8.57721e-08)
(0.000817248 4.33028e-06 6.98384e-08)
(0.00109042 4.01441e-06 1.79866e-07)
(0.000814992 1.72284e-06 3.49016e-08)
(0.000815208 2.4477e-06 5.30869e-08)
(0.00108741 2.33101e-06 1.74802e-07)
(0.000813745 1.27517e-06 4.05036e-08)
(0.000813863 8.10624e-07 1.7078e-08)
(0.00108561 1.61511e-06 2.01138e-07)
(0.000811452 9.13118e-07 6.43737e-08)
(0.000812193 4.51484e-07 5.99599e-08)
(0.00108334 1.3604e-06 1.55696e-07)
(0.00080982 5.67219e-07 2.92133e-08)
(0.000810467 4.98642e-07 4.89539e-08)
(0.00108061 7.93318e-07 1.81207e-07)
(0.000808376 2.93809e-07 3.09569e-08)
(0.000808957 7.87292e-07 2.74813e-08)
(0.00107865 5.54285e-07 1.64998e-07)
(0.000806876 1.02652e-07 8.45073e-08)
(0.000807474 2.173e-07 5.38303e-08)
(0.0010767 1.27799e-07 1.79097e-07)
(0.000805262 9.68659e-08 8.93772e-08)
(0.000806066 2.55529e-08 9.58489e-08)
(0.00107459 7.58507e-08 2.17954e-07)
(0.000803738 7.85006e-08 1.3754e-07)
(0.000804573 -3.00088e-07 5.52456e-08)
(0.0010725 1.18677e-07 1.69994e-07)
(0.000802176 -1.47692e-08 1.38724e-07)
(0.000803007 1.00799e-07 1.17045e-07)
(0.00107046 2.20633e-08 1.70918e-07)
(0.000800855 -2.79007e-08 6.67468e-08)
(0.000801507 2.00526e-07 8.09516e-08)
(0.0010686 -9.33172e-08 2.19452e-07)
(0.000799352 -7.7951e-08 5.14822e-08)
(0.000799943 2.18116e-07 3.95239e-08)
(0.00106662 5.8709e-08 1.72762e-07)
(0.000797751 -2.45556e-07 4.30491e-08)
(0.000798322 -6.63655e-07 4.87813e-08)
(0.00106455 -1.73447e-07 2.16999e-07)
(0.000796118 -1.92763e-07 2.56271e-08)
(0.000797066 -5.90957e-08 5.70763e-08)
(0.00106245 -3.70527e-07 1.80425e-07)
(0.000794759 -2.64796e-08 5.36204e-10)
(0.000795712 -3.97618e-07 -8.03054e-09)
(0.0010604 -2.5692e-08 1.94147e-07)
(0.000793403 6.11571e-08 2.90965e-08)
(0.000794072 2.62593e-07 2.83325e-08)
(0.0010586 9.30696e-08 1.49444e-07)
(0.000791946 7.84311e-08 5.46198e-08)
(0.00079256 2.22322e-07 4.36306e-08)
(0.00105676 1.87228e-07 1.48494e-07)
(0.000790375 1.12467e-07 1.14151e-07)
(0.000791163 2.25019e-08 5.03094e-08)
(0.0010549 6.94273e-08 1.80921e-07)
(0.000788853 -2.18199e-08 1.39883e-07)
(0.000789452 -1.63097e-07 1.23697e-07)
(0.00105266 2.27772e-07 1.20029e-07)
(0.000787354 -3.43121e-07 8.99724e-08)
(0.000787791 6.60445e-08 6.65926e-08)
(0.00105053 -3.33106e-07 1.58678e-07)
(0.000785446 -4.7809e-07 6.34485e-09)
(0.000786391 -7.78131e-07 -2.9986e-08)
(0.00104842 -6.85236e-07 3.65934e-07)
(0.000784066 -4.13098e-07 9.83935e-09)
(0.000784841 -6.68892e-07 -2.29404e-08)
(0.00104611 -6.80014e-07 3.17956e-07)
(0.000782398 -1.12648e-07 8.02173e-08)
(0.000783519 -1.18948e-07 1.04606e-07)
(0.00104408 -4.5617e-07 1.83259e-07)
(0.000781773 1.55641e-07 6.03582e-08)
(0.000782327 -1.67881e-06 8.4222e-08)
(0.00104275 1.24609e-07 2.20636e-07)
(0.000780362 3.18892e-07 4.06912e-08)
(0.000780941 9.7586e-08 4.42896e-08)
(0.00104142 2.79127e-07 1.75002e-07)
(0.000777968 3.64036e-07 3.15161e-08)
(0.000779183 -1.84068e-07 3.44808e-08)
(0.00103877 5.48852e-07 1.68122e-07)
(0.000776415 2.942e-07 3.06675e-08)
(0.000777451 1.458e-07 3.53043e-08)
(0.00103613 3.51111e-07 1.6226e-07)
(0.000775011 4.00993e-07 4.36452e-08)
(0.000776025 4.21022e-07 2.02518e-08)
(0.00103407 3.8586e-07 1.41861e-07)
(0.000774437 3.36294e-07 7.18185e-08)
(0.000774643 -1.45975e-06 4.2905e-08)
(0.00103281 6.82217e-07 1.79494e-07)
(0.000772592 9.63237e-08 5.58537e-08)
(0.000773199 3.07848e-07 5.86485e-08)
(0.00103133 2.61745e-07 1.77172e-07)
(0.000770981 -8.89499e-09 4.83308e-08)
(0.000771652 7.06455e-08 2.31507e-08)
(0.00102895 4.88342e-08 1.59879e-07)
(0.000769673 -3.9976e-07 8.61133e-08)
(0.000770013 1.14008e-08 6.8291e-08)
(0.00102687 -5.45815e-08 1.57811e-07)
(0.000768862 -6.67709e-07 5.13293e-08)
(0.000768889 1.69653e-06 8.55587e-08)
(0.00102573 -9.60369e-07 1.71324e-07)
(0.000766545 -3.97135e-07 1.86827e-08)
(0.000767799 2.30371e-06 4.85716e-08)
(0.00102354 -7.33816e-07 8.84698e-08)
(0.000765154 -1.76348e-07 -4.66053e-08)
(0.000766144 -2.49202e-07 3.91373e-08)
(0.00102098 -2.92507e-07 1.69323e-07)
(0.000763732 -8.66489e-08 -3.48704e-08)
(0.00076457 1.49627e-07 -3.52791e-08)
(0.0010192 -2.08975e-07 1.53116e-07)
(0.000762713 -8.77553e-08 6.00926e-08)
(0.000763212 -3.96162e-07 6.7162e-08)
(0.00101748 -7.63206e-08 1.63993e-07)
(0.000761171 -2.59994e-07 5.34009e-08)
(0.00076186 9.97831e-08 5.81712e-08)
(0.00101594 -2.20719e-07 1.76382e-07)
(0.00075952 -3.54014e-07 2.60847e-08)
(0.000760323 -2.70745e-07 -1.79931e-08)
(0.00101367 -5.00447e-07 1.99829e-07)
(0.000759022 8.71706e-07 6.03316e-08)
(0.00101151 -4.2884e-07 1.0956e-07)
(-0.00532469 0.00651264 0.000863621)
(-0.00329689 -0.000103368 0.000761879)
(-0.00242786 -0.00651275 0.00225579)
(0.0173789 -0.0228975 -0.00133399)
(0.0136012 0.000392943 0.00102051)
(0.0285619 0.000196753 -0.00138217)
(0.00098494 -0.0129415 0.000331289)
(0.0266899 -0.00552028 0.00204633)
(0.0153476 0.00423812 0.000575048)
(0.0117797 0.0244073 -0.000308947)
(0.0204352 0.023054 -0.000108472)
(0.00871171 0.0112462 0.00107438)
(0.0057206 0.0123592 0.00131357)
(0.00635087 0.0171181 0.0017874)
(0.00105413 -0.002972 0.000633682)
(-0.000397312 0.000118618 0.00127805)
(0.00650845 -0.0130347 -0.00127001)
(0.000543561 -0.00187139 0.000831896)
(0.000658518 0.000710285 0.00021929)
(-0.00016079 0.00199165 0.00110278)
(0.00330538 -0.00345462 0.000304905)
(0.0172942 0.000324454 0.00301516)
(0.00564023 -0.00182813 -0.00493232)
(-0.00136341 0.00164816 0.0013956)
(-0.00718953 -0.001949 0.000222322)
(0.00120179 -0.00859903 0.00284458)
(-0.00657318 -0.00479381 0.000215142)
(0.00157842 -0.0033024 -0.000124376)
(0.0045984 -0.00706006 -0.000146539)
(0.000613115 -0.00121108 -1.00415e-05)
(0.00138079 -0.000202957 -0.000438516)
(0.000805508 0.00164036 -5.98907e-05)
(0.0019782 -0.00318185 -2.65386e-05)
(0.00245838 0.000915584 6.9072e-05)
(0.000988033 -0.000482183 0.000172933)
(0.00110101 9.56983e-05 0.000102491)
(0.000373096 -4.77746e-05 2.33936e-05)
(0.00038815 -1.21323e-06 3.18257e-06)
(0.000327896 6.34295e-06 5.45137e-06)
(0.000543484 3.98345e-07 9.2094e-06)
(0.000257967 -1.77138e-06 -6.71709e-08)
(0.000829416 1.71201e-05 -1.32387e-06)
(0.000551292 1.15151e-05 -1.31272e-06)
(0.00112445 2.86159e-06 -1.52294e-06)
(0.000600049 1.41516e-05 -4.36753e-06)
(0.000585301 9.2272e-06 -4.59365e-06)
(0.00103472 2.48973e-05 -4.70105e-06)
(0.00099796 1.53174e-05 -4.66379e-06)
(0.000552232 -8.67919e-06 -3.83611e-06)
(0.000913949 1.62143e-05 -6.65246e-07)
(0.000915892 -2.10489e-05 -4.65582e-06)
(0.000819101 1.89829e-05 -7.17048e-08)
(0.000832276 2.93387e-05 -8.68022e-07)
(0.00109642 3.79878e-05 1.10386e-07)
(0.000817265 6.69912e-06 1.33295e-08)
(0.000804471 7.11114e-06 -2.09492e-07)
(0.00109024 9.66965e-06 1.64519e-07)
(0.000815319 3.9831e-06 3.71587e-08)
(0.000813836 4.9002e-06 1.19824e-07)
(0.0010885 6.42781e-06 1.74947e-07)
(0.00081404 2.09501e-06 3.52749e-08)
(0.000812837 2.13595e-06 4.29991e-08)
(0.00108611 3.10087e-06 1.77997e-07)
(0.000812535 1.11407e-06 3.65204e-08)
(0.000812632 1.08434e-06 4.59923e-08)
(0.00108434 1.83022e-06 1.57879e-07)
(0.000811014 5.52889e-07 4.45437e-08)
(0.00081149 4.96815e-07 4.68294e-08)
(0.00108221 7.63183e-07 1.75458e-07)
(0.000809635 3.75114e-07 4.72288e-08)
(0.000810243 3.25196e-07 5.04749e-08)
(0.00108038 4.9259e-07 1.78364e-07)
(0.000808015 3.51002e-07 5.03462e-08)
(0.000808926 5.97705e-07 5.10366e-08)
(0.0010783 3.71185e-07 2.00259e-07)
(0.000806684 4.123e-07 6.51584e-08)
(0.000807549 -2.7961e-08 4.57123e-08)
(0.00107628 4.77621e-07 1.79168e-07)
(0.000805375 4.99802e-07 6.17305e-08)
(0.000806174 -2.61298e-07 3.50361e-08)
(0.00107463 5.50896e-07 1.79943e-07)
(0.000803913 4.354e-07 3.47316e-08)
(0.000804491 -3.36523e-07 7.88338e-08)
(0.00107272 7.31485e-07 1.75775e-07)
(0.000802252 3.30916e-07 5.9285e-08)
(0.000802875 3.38743e-07 3.3796e-08)
(0.0010706 4.05476e-07 1.73925e-07)
(0.000800634 3.0643e-07 5.3742e-08)
(0.000801475 7.99132e-08 1.46908e-07)
(0.0010685 4.69747e-07 1.95038e-07)
(0.000798919 3.86989e-07 3.682e-08)
(0.000800042 2.94198e-07 2.99622e-08)
(0.00106627 3.46471e-07 1.89661e-07)
(0.000797489 5.0454e-07 6.28057e-08)
(0.000798466 9.3913e-07 5.86487e-08)
(0.001064 7.07068e-07 5.84726e-08)
(0.000796813 3.64075e-07 2.34394e-08)
(0.000796888 -1.54625e-06 3.96156e-08)
(0.00106277 6.77869e-07 2.08038e-07)
(0.000794994 1.69813e-07 1.97542e-08)
(0.000795468 2.51356e-07 1.60646e-08)
(0.00106119 3.40869e-07 1.58673e-07)
(0.000793222 7.69833e-08 4.28617e-08)
(0.000793955 2.42218e-07 4.474e-08)
(0.00105859 1.78024e-07 2.01272e-07)
(0.000791766 -2.72118e-08 3.93181e-08)
(0.00079243 2.59616e-07 4.93812e-08)
(0.00105641 9.26835e-08 1.69387e-07)
(0.000790311 -2.66792e-07 5.98323e-08)
(0.000790865 -7.68569e-08 5.15975e-08)
(0.00105459 -1.41517e-07 1.78889e-07)
(0.000788278 -3.90484e-07 5.04253e-08)
(0.000789299 -6.09396e-07 3.46287e-08)
(0.00105222 -6.45971e-07 2.54152e-07)
(0.000786945 -3.19724e-07 -5.33354e-08)
(0.000787882 -9.03259e-08 2.60498e-08)
(0.00104985 -4.89623e-07 1.71881e-07)
(0.000785674 -2.11936e-07 -5.92735e-08)
(0.000786527 2.68064e-07 4.0933e-08)
(0.00104831 -4.03362e-07 8.14101e-08)
(0.00078428 1.42731e-07 7.17866e-08)
(0.000785284 4.27815e-07 3.68748e-08)
(0.00104653 -1.93865e-07 8.8541e-08)
(0.00078346 5.03972e-07 1.08617e-07)
(0.000783969 -2.43474e-06 6.009e-08)
(0.00104504 5.80589e-07 2.7966e-07)
(0.000781457 4.12072e-07 6.81658e-08)
(0.000782211 -1.98159e-06 4.82742e-08)
(0.00104326 8.02232e-07 2.41855e-07)
(0.000779996 1.09155e-07 3.80823e-08)
(0.000780561 1.48771e-07 6.63001e-08)
(0.00104085 3.07188e-07 1.68548e-07)
(0.00077847 6.46214e-08 3.82688e-08)
(0.000779126 -7.35923e-08 4.29767e-08)
(0.00103879 -1.57229e-09 1.70071e-07)
(0.000777047 2.46423e-07 2.48933e-08)
(0.000777677 4.97271e-08 1.27376e-07)
(0.00103686 2.08087e-07 1.75829e-07)
(0.000775648 4.56009e-07 1.95045e-08)
(0.000776286 6.29544e-08 2.79215e-08)
(0.0010351 4.62591e-07 1.92469e-07)
(0.000773481 3.93061e-07 2.97301e-08)
(0.000774562 -6.47126e-07 3.20305e-08)
(0.00103265 7.59043e-07 1.7753e-07)
(0.000772221 2.0012e-07 2.59565e-08)
(0.000772956 9.79298e-08 2.89602e-08)
(0.00103029 3.34146e-07 1.69731e-07)
(0.000770761 6.9736e-08 4.3097e-08)
(0.000771488 2.39168e-08 4.95452e-08)
(0.00102857 2.29904e-07 1.76181e-07)
(0.000768924 -1.16703e-07 6.77311e-08)
(0.00076978 6.9141e-07 7.10525e-08)
(0.00102629 -6.63328e-08 1.5788e-07)
(0.000768048 -4.61971e-07 8.28123e-08)
(0.000768459 5.65866e-07 1.18495e-07)
(0.00102445 -2.84475e-07 2.02173e-07)
(0.000767484 -4.96801e-07 6.90291e-08)
(0.000767758 6.71918e-08 1.09913e-07)
(0.0010237 -9.51772e-07 2.54535e-07)
(0.000765452 -1.87049e-07 5.04862e-08)
(0.000766534 4.87872e-07 5.11321e-08)
(0.00102186 -3.52069e-07 1.72273e-07)
(0.000764014 3.2688e-08 6.6722e-08)
(0.000764846 -8.18434e-08 8.24036e-08)
(0.00101949 -1.71669e-07 1.89032e-07)
(0.000762417 9.40515e-08 6.52434e-08)
(0.000763289 6.68341e-08 7.05801e-08)
(0.00101757 2.20449e-07 1.53345e-07)
(0.00076098 -4.92532e-08 -1.31996e-08)
(0.000761682 2.01957e-07 4.44773e-08)
(0.00101551 -5.25922e-10 1.65261e-07)
(0.000759742 -1.55338e-07 1.623e-08)
(0.000760193 4.90428e-08 -5.05095e-08)
(0.00101364 -1.84719e-07 1.31551e-07)
(0.000759215 -1.56687e-07 1.17408e-07)
(0.00101227 -2.76292e-07 2.29435e-07)
(-0.00770971 0.00226668 8.94167e-05)
(-0.0111488 -0.0134204 -0.00013855)
(-0.00666679 0.00106359 0.000356618)
(-0.00581804 -0.00576697 0.00127966)
(-0.00357223 0.00833463 0.00044689)
(-0.00925446 0.00263947 0.000729683)
(0.00118357 0.00974439 -0.000344771)
(0.0033555 -0.00600722 0.000608997)
(0.00250823 0.000204951 0.000468774)
(-0.000213942 -0.00705079 0.00415031)
(0.0231122 0.00646548 -1.67507e-05)
(0.0143721 -0.00357267 0.00163009)
(0.016118 0.0117516 -0.000120843)
(0.00489046 -0.00794006 0.00467186)
(0.0185345 -0.00243489 -0.00614494)
(0.00228114 -0.00525977 0.00436672)
(0.00356045 -0.00121293 0.00197743)
(0.0143072 -0.01553 -0.000331814)
(0.00749137 0.00430053 0.000275736)
(0.0178301 -0.022914 -0.00146401)
(0.00965281 0.00906457 -0.00060038)
(0.0107864 -0.00219572 0.00013862)
(0.00520883 0.00150032 0.000115609)
(0.003975 -0.00348645 -5.0768e-05)
(0.00392905 0.00683747 0.000573777)
(-0.00806287 -0.0125602 -0.000759743)
(0.00655434 0.00394871 0.000586351)
(0.00161643 -0.0112711 0.000825016)
(0.0127933 -0.00209616 0.000189769)
(0.00440034 0.00612399 0.000163222)
(0.000376453 -0.012088 -0.00195504)
(-0.00522388 -0.00301767 1.2988e-05)
(0.00693989 -0.00225709 -4.28285e-05)
(-0.00494236 0.00267481 0.00580957)
(-0.00215789 -0.000461845 -1.84643e-05)
(-0.00498087 -0.00358428 -6.15866e-05)
(-0.00517762 -0.00325596 -0.000384556)
(0.00320058 0.000268605 0.0025536)
(0.00424706 0.00670675 -0.0015278)
(-0.00276488 -0.00235959 -0.00296208)
(-0.0088588 0.00014438 0.000452893)
(0.0100794 -0.00352749 0.000446)
(-0.0141713 -4.32156e-05 0.00137277)
(0.00962429 0.00231461 0.000251427)
(-0.000300831 -0.000955936 6.04413e-05)
(0.00752621 0.000107152 0.000694765)
(0.00685057 0.00422471 0.00210041)
(-0.00319066 -0.00452154 -5.64936e-06)
(-0.0039731 -0.00238674 -0.00011561)
(-0.0038337 -0.00266238 -0.000173546)
(-0.0054162 -0.00544447 -0.000230162)
(-0.00105153 0.000837254 -7.29417e-05)
(-0.00111404 0.000710942 -6.50456e-05)
(0.000202551 0.000956346 -5.41083e-05)
(-0.000126487 0.00167634 -9.06058e-05)
(-0.000594248 0.00128574 -0.000167339)
(0.00124868 0.000190241 3.58972e-05)
(0.000457924 -0.000207481 4.02155e-05)
(0.00058157 -0.000137963 1.60292e-05)
(0.000626564 -0.000110381 6.20862e-05)
(0.000456777 -9.40114e-05 2.19552e-05)
(0.000431547 2.68931e-06 -2.73067e-07)
(0.000448521 -2.64996e-07 -2.76805e-06)
(0.000418352 -1.1406e-06 1.19122e-07)
(0.000677975 1.23085e-05 -5.58817e-07)
(0.000795942 7.95569e-06 -1.00603e-06)
(0.000854409 -8.8603e-06 -1.45263e-06)
(0.00112502 1.89327e-05 -9.00991e-07)
(0.000566501 -1.33833e-06 -3.53289e-06)
(0.000572293 -1.2206e-06 -4.98174e-06)
(0.000934894 -1.33281e-05 -4.35278e-06)
(0.000942493 -1.24996e-05 -6.24685e-06)
(0.000806653 1.16692e-06 -1.03106e-07)
(0.000795953 -6.75497e-06 -4.28403e-07)
(0.00105603 4.16014e-07 7.99509e-08)
(0.000810655 1.02255e-06 1.25689e-07)
(0.00081365 -2.49583e-06 1.86857e-07)
(0.00108217 1.57591e-06 2.12305e-07)
(0.000811865 3.69755e-07 5.37155e-08)
(0.000812018 -1.28202e-06 3.14332e-08)
(0.00108163 4.28696e-07 1.78246e-07)
(0.000811653 1.37598e-07 5.63012e-08)
(0.000812341 -6.00415e-07 5.76462e-08)
(0.00108268 1.0268e-07 1.81784e-07)
(0.000810746 7.28371e-08 5.27595e-08)
(0.000811408 -2.76821e-07 5.03103e-08)
(0.00108166 -1.72045e-08 1.79525e-07)
(0.000809537 5.05346e-08 5.42826e-08)
(0.000810215 -7.75814e-08 5.00564e-08)
(0.00108012 3.94466e-08 1.79988e-07)
(0.000808485 6.38667e-08 4.64044e-08)
(0.000808942 -5.12324e-08 5.16574e-08)
(0.00107863 -2.20558e-08 1.83272e-07)
(0.000807061 1.16495e-07 1.55933e-08)
(0.000807615 -1.75587e-07 4.03155e-08)
(0.00107692 1.11405e-07 1.80637e-07)
(0.000805409 4.12797e-08 5.21253e-08)
(0.00080608 4.21303e-07 2.74709e-08)
(0.00107491 1.44411e-07 1.42671e-07)
(0.000803303 -2.54085e-08 7.79127e-08)
(0.000804407 5.32999e-07 7.39235e-08)
(0.00107231 -8.82808e-08 1.6884e-07)
(0.000802161 -1.5125e-08 1.21382e-07)
(0.000802889 -2.44162e-07 3.56721e-08)
(0.00107013 -2.34096e-08 1.85896e-07)
(0.000800806 3.03323e-08 1.23165e-07)
(0.000801532 1.06694e-07 1.34695e-07)
(0.00106852 -3.61757e-08 1.61855e-07)
(0.000799712 1.50832e-07 5.17818e-08)
(0.000800192 -2.33436e-07 4.91406e-08)
(0.00106691 9.55723e-08 1.77793e-07)
(0.000797768 3.39906e-07 3.54647e-08)
(0.000798702 -2.07856e-08 2.43106e-08)
(0.00106496 2.78061e-07 2.8181e-07)
(0.000795554 3.14136e-07 3.22484e-08)
(0.000796854 -1.61227e-07 3.8565e-08)
(0.00106199 6.00247e-07 1.41753e-07)
(0.000794418 1.0967e-07 4.10413e-08)
(0.000795211 -1.94727e-07 3.7416e-08)
(0.00105977 1.97126e-07 1.75393e-07)
(0.000793169 4.00286e-08 5.1258e-08)
(0.000793867 -1.10588e-07 3.1563e-08)
(0.00105829 6.32591e-08 1.78757e-07)
(0.000791561 2.78591e-08 6.166e-08)
(0.000792414 1.75362e-07 6.69474e-08)
(0.00105636 3.91031e-08 1.91291e-07)
(0.00078989 -1.19503e-08 2.63993e-08)
(0.000790815 7.21743e-09 5.72762e-08)
(0.00105398 5.43056e-08 1.84977e-07)
(0.000788755 1.75942e-07 1.02559e-08)
(0.000789533 5.44435e-07 -9.88536e-09)
(0.00105223 -5.20415e-08 6.22392e-08)
(0.000787587 4.44254e-07 1.20313e-07)
(0.000788215 6.67363e-07 3.29204e-08)
(0.00105083 5.79269e-07 9.2873e-08)
(0.000786004 4.9413e-07 1.37083e-07)
(0.000786586 3.71584e-07 1.16185e-07)
(0.0010488 7.06233e-07 1.75719e-07)
(0.000785065 4.76782e-07 2.5171e-08)
(0.00078526 5.3396e-07 1.029e-08)
(0.00104734 7.06524e-07 1.18415e-07)
(0.000782814 2.98949e-07 -2.49434e-10)
(0.000783745 -3.53652e-08 2.05457e-08)
(0.00104533 6.01156e-07 7.18952e-08)
(0.000781175 9.58615e-08 4.64029e-08)
(0.000781956 1.64615e-07 2.8728e-08)
(0.0010424 2.25487e-07 3.53137e-08)
(0.000779727 5.00138e-08 7.12018e-08)
(0.000780503 1.37622e-07 7.53741e-08)
(0.00104041 4.89723e-08 1.71823e-07)
(0.000778301 3.806e-08 1.32058e-07)
(0.000779111 -1.85254e-07 6.22074e-08)
(0.00103865 6.89065e-08 1.76937e-07)
(0.000776923 -8.32177e-09 1.30435e-07)
(0.000777619 1.14579e-07 1.28174e-07)
(0.00103671 3.4857e-08 1.60292e-07)
(0.000775367 -9.7337e-08 4.04462e-08)
(0.000776175 -1.38145e-08 4.94092e-08)
(0.00103475 -3.6345e-08 1.86433e-07)
(0.000773737 -7.97084e-08 3.12615e-08)
(0.000774585 -1.96685e-07 2.29664e-08)
(0.00103265 -1.93202e-07 1.55314e-07)
(0.000772479 -6.66434e-08 5.25426e-08)
(0.000772973 -7.05467e-08 3.94741e-08)
(0.00103067 -6.20115e-09 1.6654e-07)
(0.000770441 -4.80086e-08 7.7494e-08)
(0.000771512 6.74698e-07 6.68741e-08)
(0.00102844 -1.6606e-07 1.77927e-07)
(0.000769227 2.53975e-07 1.21801e-07)
(0.000770157 -2.24366e-07 6.46451e-08)
(0.00102622 5.54236e-08 2.16924e-07)
(0.000767853 5.14936e-07 1.45598e-07)
(0.000768783 3.66337e-07 1.74489e-07)
(0.00102463 6.62064e-07 1.79951e-07)
(0.000767332 3.36242e-07 9.20338e-08)
(0.000767532 -1.10194e-06 1.47796e-08)
(0.00102346 7.49505e-07 1.73211e-07)
(0.000765758 1.41185e-07 8.304e-08)
(0.000766288 7.72717e-07 1.11469e-09)
(0.00102196 2.08599e-07 1.63502e-07)
(0.000764165 1.93351e-07 8.62653e-08)
(0.000764909 1.41411e-08 7.7776e-08)
(0.00101992 2.69881e-07 1.79415e-07)
(0.000762475 3.01346e-07 4.98219e-08)
(0.000763423 -3.39282e-08 5.986e-08)
(0.0010177 3.20587e-07 2.02817e-07)
(0.000760938 3.00709e-07 7.19627e-09)
(0.000761679 3.95003e-07 4.19798e-08)
(0.00101544 5.05395e-07 1.67747e-07)
(0.000759403 1.8328e-07 5.06177e-08)
(0.000760044 1.61112e-07 1.19441e-08)
(0.00101334 2.80827e-07 1.73891e-07)
(0.000758986 -1.35847e-06 1.36527e-07)
(0.00101208 1.92652e-07 2.10205e-07)
(0.00154639 0.00304625 5.54957e-05)
(-0.00289007 -0.00216608 0.000357493)
(-0.00166024 -0.000989923 -0.00336397)
(-0.0047706 9.90219e-05 1.26992e-05)
(-0.00775828 -0.00715395 0.00106266)
(-0.0146466 0.0183073 0.000417064)
(-0.000240228 0.00719556 0.00342119)
(0.0102154 0.0121558 0.00745798)
(0.0112942 0.00830667 -0.00688147)
(0.00119987 0.00678133 -4.6916e-05)
(0.00516081 0.00545034 -0.000137316)
(0.00305947 0.00611319 -0.000367036)
(0.00723373 0.011446 -0.00101324)
(0.0011266 -0.00184069 0.000154394)
(0.00375101 0.00409462 -0.00029759)
(0.00589278 0.00152922 0.00058277)
(0.00565295 -0.0018538 -0.000260492)
(-0.000999154 -0.000356402 5.37765e-05)
(0.00336424 0.0027807 -0.000305559)
(-0.00210175 -0.01065 0.0003319)
(-0.00613996 -0.00340082 0.000785215)
(-0.00162711 -0.00405719 0.00187113)
(0.0121569 -0.00320424 0.000195487)
(0.00115848 0.0067312 0.000521945)
(0.00702359 -0.0103194 -0.000247048)
(-0.000478169 5.88332e-05 0.000136155)
(0.0107754 0.00553535 0.000108378)
(0.0132009 -0.00285157 0.00010709)
(-0.00708057 -0.000155842 -0.000232495)
(-0.00824898 0.00165594 -0.0003793)
(-0.00737121 0.00188542 -4.36135e-05)
(-0.0124926 0.000161159 -0.000713648)
(-0.0151079 0.000754874 0.000121214)
(0.00155593 -0.00159245 -1.43845e-05)
(0.00142183 -0.000333129 -0.000149261)
(0.00127612 0.0033394 -7.8729e-05)
(0.00709766 -0.000748163 -0.000133704)
(0.00377506 -0.0027612 -4.45035e-05)
(0.000318261 0.000247349 4.23755e-05)
(0.00111666 0.000583471 0.000115809)
(0.000722853 5.5092e-05 0.00012001)
(0.000702632 -7.10585e-05 1.39564e-05)
(0.000575919 -8.03277e-05 6.03317e-05)
(0.00028732 -2.55181e-05 -1.8216e-06)
(0.000458895 -3.10413e-05 -3.4232e-06)
(0.000425967 -4.49923e-05 -6.35806e-07)
(0.000692436 -7.27107e-05 -1.51012e-06)
(0.00030779 -3.21892e-05 -1.17477e-06)
(0.000533073 -4.63847e-05 2.1279e-06)
(0.000586171 -6.38441e-05 3.93143e-06)
(0.000422202 -2.97374e-05 -3.34943e-07)
(0.000810472 -1.66777e-05 -8.75345e-07)
(0.000882828 -2.0896e-05 -1.25237e-06)
(0.00115689 -2.98612e-05 -1.04872e-06)
(0.000589191 -2.05342e-05 -3.70741e-06)
(0.000595794 -2.69983e-05 -4.64753e-06)
(0.000972801 -4.04729e-05 -4.55212e-06)
(0.000993164 -5.46312e-05 -5.75727e-06)
(0.000813452 -8.00075e-06 -1.38641e-07)
(0.000806814 -1.04576e-05 -5.61251e-07)
(0.00106846 -1.48733e-05 4.78279e-08)
(0.000813655 -3.6073e-06 9.26521e-08)
(0.000819162 -5.01816e-06 1.66328e-07)
(0.0010885 -6.61791e-06 2.05371e-07)
(0.000813104 -1.74556e-06 3.53553e-08)
(0.000814354 -2.44023e-06 4.39976e-08)
(0.00108426 -3.09621e-06 1.74985e-07)
(0.000812161 -8.76049e-07 5.16577e-08)
(0.000813431 -1.35879e-06 1.33144e-07)
(0.00108378 -1.61275e-06 1.81507e-07)
(0.00081098 -3.40774e-07 4.76073e-08)
(0.000812079 -6.98255e-07 4.74261e-08)
(0.00108213 -7.55466e-07 1.79075e-07)
(0.000809594 -7.55774e-08 4.74307e-08)
(0.000810547 -2.28932e-07 1.73236e-08)
(0.00108037 -1.83555e-07 1.78217e-07)
(0.000808132 -1.19993e-07 4.55722e-08)
(0.000808887 -1.1239e-07 4.27602e-08)
(0.00107839 -4.50357e-08 1.78295e-07)
(0.000806701 -2.5887e-07 5.21972e-08)
(0.000807442 -1.32654e-07 5.26733e-08)
(0.00107649 -2.83483e-07 1.68147e-07)
(0.00080511 -3.84246e-07 4.92542e-08)
(0.000805924 3.26094e-08 5.60293e-08)
(0.00107438 -3.87022e-07 2.11316e-07)
(0.000803894 -3.82615e-07 3.16952e-08)
(0.000804411 7.98374e-08 7.74498e-08)
(0.00107251 -6.12082e-07 1.83476e-07)
(0.000802253 -2.45512e-07 4.89531e-08)
(0.000803061 -8.34771e-08 1.51996e-08)
(0.00107067 -4.15059e-07 1.77559e-07)
(0.000800914 -1.86643e-07 6.06978e-08)
(0.000801607 -2.71946e-08 6.87806e-08)
(0.00106865 -2.72278e-07 1.71703e-07)
(0.000799246 -3.23904e-07 2.16773e-08)
(0.000800022 -3.51838e-08 7.10741e-08)
(0.00106666 -2.56202e-07 1.77152e-07)
(0.00079789 -4.10441e-07 2.74064e-08)
(0.000798595 -2.83301e-07 1.70621e-07)
(0.00106463 -6.1084e-07 1.82037e-07)
(0.000796341 -1.71251e-07 4.37331e-08)
(0.000797155 -8.1972e-08 7.95699e-08)
(0.00106266 -4.65149e-07 1.74839e-07)
(0.000794647 1.02716e-07 2.79397e-08)
(0.000795554 -2.40596e-08 1.08722e-07)
(0.00106052 9.06055e-09 1.81099e-07)
(0.000793151 2.33925e-07 4.72412e-08)
(0.000794031 -7.00193e-08 4.82916e-08)
(0.00105839 2.43434e-07 1.72882e-07)
(0.000791715 3.5262e-07 6.25667e-08)
(0.000792561 2.01134e-09 6.6082e-08)
(0.0010564 3.65081e-07 1.82413e-07)
(0.00079034 5.77542e-07 2.10127e-08)
(0.000791093 5.58722e-07 5.90038e-08)
(0.00105448 5.95874e-07 1.26063e-07)
(0.000789092 5.80146e-07 1.27656e-08)
(0.000789533 7.86615e-07 1.05223e-07)
(0.00105288 1.03999e-06 1.36526e-07)
(0.000787203 3.94078e-07 2.87659e-08)
(0.000787979 -3.50845e-08 4.06386e-08)
(0.0010508 6.42754e-07 2.59606e-07)
(0.000785755 4.09756e-07 -1.05741e-08)
(0.000786603 3.50695e-07 3.4925e-08)
(0.00104846 5.52678e-07 1.72511e-07)
(0.000784148 2.05878e-07 5.66151e-09)
(0.000785003 2.02835e-07 -5.06863e-09)
(0.00104639 7.08172e-07 2.08613e-07)
(0.000782723 -6.94588e-08 4.95205e-08)
(0.000783399 -1.20205e-07 4.06347e-08)
(0.00104443 -7.91283e-09 1.74901e-07)
(0.000781285 -2.57976e-08 5.76846e-08)
(0.00078201 2.07351e-08 5.12342e-08)
(0.00104257 -9.545e-08 1.80336e-07)
(0.00077994 2.02877e-08 6.63837e-08)
(0.00078056 -7.17343e-08 5.6419e-08)
(0.00104065 6.63221e-08 1.76731e-07)
(0.000778351 -7.83383e-09 5.83036e-08)
(0.000779076 -8.93896e-08 5.79162e-08)
(0.00103878 1.68964e-08 1.76775e-07)
(0.000776927 -6.04669e-08 4.7173e-08)
(0.000777554 -1.44534e-07 -4.37014e-08)
(0.00103673 -4.5276e-08 1.87517e-07)
(0.000775401 -1.54795e-07 3.19376e-08)
(0.000776057 1.33733e-07 5.46636e-08)
(0.00103481 -1.28559e-07 1.67682e-07)
(0.000773785 -1.90561e-07 3.11739e-08)
(0.000774541 -2.87624e-07 2.93159e-08)
(0.00103268 -3.05168e-07 1.9285e-07)
(0.000772002 -1.50609e-07 5.37972e-08)
(0.000773023 4.86679e-07 5.62271e-08)
(0.00103033 -2.39709e-07 1.61582e-07)
(0.000771245 4.05543e-09 5.40259e-08)
(0.000771705 -1.10092e-07 4.51741e-08)
(0.00102865 -1.49171e-07 1.66028e-07)
(0.000769698 2.41499e-07 1.17299e-07)
(0.000770452 1.28112e-07 2.26259e-07)
(0.00102733 2.45952e-07 1.55436e-07)
(0.000768348 4.7686e-07 4.37204e-08)
(0.000769076 4.44128e-07 1e-07)
(0.00102531 5.10803e-07 1.57722e-07)
(0.00076655 4.18683e-07 -7.61353e-08)
(0.000767457 -9.79729e-07 -2.49043e-08)
(0.00102312 8.14092e-07 1.95392e-07)
(0.000765494 1.68154e-07 -4.17272e-09)
(0.000765973 1.05004e-07 1.58157e-08)
(0.00102126 3.04517e-07 1.85609e-07)
(0.000764151 1.03642e-07 5.13762e-08)
(0.000764828 8.18566e-08 4.7178e-08)
(0.00101963 1.47203e-07 1.58621e-07)
(0.000762743 2.22586e-07 5.20234e-08)
(0.000763571 1.14885e-06 3.54606e-08)
(0.00101787 1.10246e-07 8.3672e-08)
(0.000760666 2.65621e-07 4.67368e-08)
(0.000761732 1.26437e-06 -9.53426e-08)
(0.00101546 4.16579e-07 1.67694e-07)
(0.000759475 2.31784e-07 9.78161e-08)
(0.000759999 -4.8998e-08 4.45359e-08)
(0.00101324 2.49334e-07 1.6599e-07)
(0.000758698 -1.35596e-06 9.83686e-08)
(0.00101168 3.68142e-07 1.86778e-07)
(-0.00825489 -0.00496997 0.00017615)
(-0.00181337 -0.00979573 0.000265603)
(-0.00996657 -0.0103732 0.00123458)
(0.0093777 -0.00333196 -0.00021408)
(-0.00856407 0.00603238 -0.000911972)
(-0.000532082 0.00253549 -0.00137731)
(0.000206056 -0.000372169 -0.000245845)
(0.00161508 -0.00310883 -0.000139637)
(-0.000166664 -0.00950436 0.000362447)
(-0.0118081 -0.0056369 0.000699824)
(-0.00627321 0.000401119 0.000645625)
(-0.0164729 -0.00320548 0.000678124)
(-0.00501476 0.000382364 0.0013583)
(-0.00265238 0.00263716 -0.00201378)
(-0.00537446 -0.00587442 -0.00168223)
(0.00213563 0.00403156 0.00270645)
(-0.00172188 -0.00418732 -0.017278)
(-0.0108235 -0.00240425 -0.0143478)
(-0.0152633 0.0185142 0.0298594)
(-0.0131598 0.00652375 -1.81398e-05)
(-0.00195376 -0.000435567 -0.000458737)
(-0.0111337 0.00236464 -0.00030158)
(-0.00770797 0.00209114 -0.00106926)
(-0.00161418 0.000434296 -7.61363e-05)
(-0.00147439 0.00139932 0.000183254)
(-0.00257103 0.00363843 0.000133236)
(0.000311883 0.00346016 0.000344958)
(8.02768e-05 0.00248612 0.000461964)
(0.00457706 0.000685713 -5.9674e-05)
(0.000858508 0.00160082 -9.65886e-06)
(-0.000813223 0.00281552 -5.53777e-06)
(1.89083e-05 0.000675066 -3.81751e-05)
(-0.0006823 0.00241184 9.19691e-06)
(-0.00036284 0.00485726 -0.000124661)
(0.00114232 -5.2286e-05 -1.93396e-05)
(0.00154128 0.000200804 -5.72784e-05)
(0.00158788 -3.6007e-05 6.10441e-06)
(0.00170682 0.000174383 -1.30739e-05)
(0.0014874 0.000733651 8.52169e-05)
(0.000356234 -4.78097e-05 8.49306e-06)
(0.000511055 -2.84394e-05 -3.87828e-06)
(0.000486192 -1.2887e-05 -7.369e-07)
(0.000799794 -5.59355e-05 7.06923e-07)
(0.000391316 -3.83332e-05 8.12976e-07)
(0.000655859 -0.000109279 2.52624e-05)
(0.000771808 -8.37009e-05 3.45612e-06)
(0.000457991 -4.36795e-05 -8.25915e-07)
(0.000830534 -9.58162e-06 -9.38501e-07)
(0.000896031 -7.51286e-07 -1.21013e-06)