/*--------------------------------*- C++ -*----------------------------------*\
| =========                 |                                                 |
| \\      /  F ield         | OpenFOAM: The Open Source CFD Toolbox           |
|  \\    /   O peration     | Version:  5.0                                   |
|   \\  /    A nd           | Web:      www.OpenFOAM.org                      |
|    \\/     M anipulation  |                                                 |
\*---------------------------------------------------------------------------*/
FoamFile
{
    version     2.0;
    format      ascii;
    class       surfaceVectorField;
    location    "2.2";
    object      Uf_0;
}
// * * * * * * * * * * * * * * * * * * * * * * * * * * * * * * * * * * * * * //

dimensions      [0 1 -1 0 0 0 0];

internalField   nonuniform List<vector> 
23800
(
(0.00604937 -0.00203215 0.00272845)
(-0.0256623 0.0188952 0.00359928)
(0.000342623 0.0066004 0.00189693)
(-0.024532 0.0262298 0.0039939)
(-0.0204077 0.0145068 0.00263941)
(-0.0125568 0.00557722 -0.0136875)
(0.00541406 -0.000657706 -0.00468051)
(-0.0166467 0.0156835 -0.0475627)
(0.00703196 0.00922103 0.0602225)
(-0.0278982 0.00421094 -0.00212429)
(-0.00685692 0.0162508 -0.00482317)
(6.77452e-05 0.00518237 -0.00163923)
(-0.0086188 0.0378967 -0.00187638)
(-0.00203564 0.00102449 -0.00194607)
(0.0213633 -0.0309367 -0.0010024)
(0.00208368 -0.00431603 -0.00568427)
(-0.00744015 0.0311968 -0.000883803)
(-0.0108081 -0.00306863 -0.000228195)
(-0.00277714 -0.00575754 0.0015421)
(0.00315735 0.00102525 0.000439955)
(-0.00254047 -0.00155386 0.000327175)
(-0.00552222 0.00230966 -0.000644601)
(0.00375516 -0.00279672 -3.48029e-05)
(0.0100249 -0.00423175 0.000884194)
(0.0130377 0.00716164 0.000191355)
(-0.00854688 0.0144719 0.00208168)
(-0.000668219 0.00846098 0.000201618)
(0.00511204 -0.00502172 0.00303127)
(0.010937 -0.00642162 0.00431814)
(0.00340044 -0.00720124 -0.00208389)
(0.00162786 0.00496404 -0.000398092)
(-0.00107334 -0.000655925 -0.000517315)
(-0.00304666 0.000680238 -0.00120841)
(-0.000636234 0.0044722 5.11863e-05)
(0.000108636 -0.000348542 4.29003e-05)
(-0.00064321 0.000405235 4.20056e-06)
(0.000315489 -0.00197967 -8.56177e-05)
(0.000309617 -4.12504e-05 1.56663e-05)
(0.000462814 -1.95001e-05 -2.5707e-06)
(0.000496946 -2.39974e-05 1.20028e-06)
(0.000803788 -3.01336e-05 4.24298e-06)
(0.000409963 -4.49982e-05 4.07307e-06)
(0.000536569 -9.36644e-05 3.94227e-05)
(0.000810836 -9.87385e-05 1.41264e-05)
(0.000808951 -1.80405e-05 -1.00867e-06)
(0.000841813 -3.37366e-05 -2.20442e-06)
(0.00112364 -3.12632e-05 -1.16921e-06)
(0.000578919 -2.0909e-05 -4.01368e-06)
(0.000574924 -1.8248e-05 -4.367e-06)
(0.000983907 -3.3726e-05 -4.08911e-06)
(0.000969074 -2.61964e-05 -4.46093e-06)
(0.000808405 -9.08065e-06 -5.60483e-08)
(0.000811277 -7.75572e-06 -1.79235e-07)
(0.00107271 -1.35558e-05 1.34213e-07)
(0.000810905 -5.466e-06 1.00242e-07)
(0.000813136 -8.97338e-06 7.94149e-08)
(0.0010825 -8.59072e-06 1.84382e-07)
(0.000811709 -3.11873e-06 8.76078e-08)
(0.00081336 -5.21371e-06 6.74925e-08)
(0.00108251 -4.69732e-06 1.85138e-07)
(0.000811884 -1.799e-06 7.0542e-08)
(0.000813082 -3.46396e-06 5.50647e-08)
(0.00108265 -2.8383e-06 1.83982e-07)
(0.00081183 -1.00188e-06 6.55657e-08)
(0.000812666 -3.28703e-06 4.5397e-08)
(0.00108253 -1.50241e-06 2.16733e-07)
(0.000811199 -6.17721e-07 5.80353e-08)
(0.000811838 -1.67114e-06 5.31799e-08)
(0.00108185 -8.62541e-07 1.8568e-07)
(0.000809959 -3.53944e-07 3.35107e-08)
(0.000810809 -6.97601e-07 4.987e-08)
(0.00108027 -5.63485e-07 1.80621e-07)
(0.000808916 -2.90941e-07 3.53075e-08)
(0.000809497 -9.04039e-07 2.80619e-08)
(0.0010787 -2.47434e-07 1.81651e-07)
(0.0008074 -3.48381e-07 5.72669e-08)
(0.000808096 -3.22599e-07 5.44954e-08)
(0.00107695 -4.43386e-07 1.81804e-07)
(0.000805937 -3.28357e-07 5.93329e-08)
(0.000806778 -2.86489e-07 6.89157e-08)
(0.00107489 -4.24474e-07 1.86411e-07)
(0.000804548 -3.37695e-07 7.06677e-08)
(0.00080537 -4.26685e-07 5.99831e-08)
(0.00107295 -3.87573e-07 1.79775e-07)
(0.000803368 -3.16498e-07 6.9324e-08)
(0.000803983 6.98169e-08 5.53367e-08)
(0.00107122 -4.3926e-07 2.35199e-07)
(0.0008018 -1.45151e-07 6.62987e-08)
(0.000802629 1.10858e-08 7.03959e-08)
(0.00106944 -3.29025e-07 1.39426e-07)
(0.000800184 -9.29395e-09 4.88007e-08)
(0.000801028 -4.38616e-07 6.36574e-08)
(0.0010672 2.10789e-08 2.02081e-07)
(0.000798887 -5.05925e-09 4.69808e-08)
(0.000799465 6.2048e-07 8.17196e-08)
(0.00106526 2.10203e-08 1.17929e-07)
(0.00079718 7.58484e-08 3.82737e-08)
(0.000798118 9.19817e-08 5.56617e-08)
(0.00106332 -3.74209e-09 1.78487e-07)
(0.000795591 2.2757e-07 5.52633e-08)
(0.000796613 4.88358e-07 3.65725e-08)
(0.00106108 2.4254e-07 1.50855e-07)
(0.000794562 2.71918e-07 8.80952e-08)
(0.000795081 -1.71644e-06 8.55027e-08)
(0.00105932 4.35504e-07 2.56133e-07)
(0.00079331 1.66342e-07 5.74154e-08)
(0.000793657 -9.26485e-07 9.68115e-08)
(0.00105777 3.50231e-07 2.13355e-07)
(0.000791911 1.27961e-07 4.7886e-08)
(0.000792341 -1.6836e-08 4.57081e-08)
(0.00105619 1.17077e-07 1.72166e-07)
(0.000789337 -5.47019e-08 5.81139e-08)
(0.000790476 9.29798e-07 5.73391e-08)
(0.0010534 2.18776e-07 2.57485e-07)
(0.00078812 -4.84363e-07 4.17866e-09)
(0.000788599 -3.82634e-07 6.94561e-08)
(0.00105076 -3.99807e-07 2.08752e-07)
(0.000786779 -6.35014e-07 -2.52698e-08)
(0.000787451 1.82129e-06 3.6892e-08)
(0.00104924 -9.365e-07 -2.18075e-08)
(0.000785091 -5.29076e-07 4.44685e-08)
(0.000786093 9.6242e-07 2.67292e-08)
(0.00104705 -7.84893e-07 8.84788e-08)
(0.000784184 -3.56199e-07 6.42865e-08)
(0.000784788 2.6471e-07 1.3738e-07)
(0.00104529 -6.27052e-07 1.65809e-07)
(0.000783002 -7.98834e-08 4.13642e-08)
(0.000783764 9.01505e-08 1.42955e-07)
(0.00104411 -2.77373e-07 1.14142e-07)
(0.000781253 -2.55355e-08 4.02632e-08)
(0.000782152 9.84332e-08 4.20088e-08)
(0.00104213 1.2143e-07 1.61356e-07)
(0.000779752 -1.78587e-07 3.82425e-08)
(0.000780424 4.82928e-08 3.9224e-08)
(0.00103989 -1.26556e-07 1.71763e-07)
(0.000778137 -9.28759e-08 2.30767e-08)
(0.000779051 -1.24053e-08 4.45196e-08)
(0.00103781 -2.67112e-07 1.76053e-07)
(0.000776703 1.75562e-07 -3.84053e-08)
(0.000777575 1.04717e-07 3.40988e-08)
(0.00103564 9.35922e-08 1.68415e-07)
(0.000775162 3.49179e-07 -1.36446e-08)
(0.000776054 2.09905e-07 -2.87492e-08)
(0.00103376 4.53465e-07 1.86284e-07)
(0.000774343 2.25719e-07 4.49064e-08)
(0.000774686 -9.49059e-07 3.55698e-08)
(0.00103233 5.26464e-07 1.87804e-07)
(0.00077282 8.7243e-09 4.54521e-08)
(0.000773342 1.00795e-07 4.46699e-08)
(0.00103065 8.98411e-08 1.689e-07)
(0.00077137 -1.47931e-07 7.88663e-08)
(0.000771867 -9.66374e-08 6.59052e-08)
(0.00102851 -4.87507e-08 1.70852e-07)
(0.000770056 -2.67229e-07 1.66857e-07)
(0.000770604 -4.04418e-07 5.79325e-08)
(0.00102697 -3.83717e-07 1.79152e-07)
(0.000768611 -2.27133e-07 1.39835e-07)
(0.00076931 -3.72543e-07 1.70402e-07)
(0.001025 -3.83575e-07 1.71002e-07)
(0.000766962 -1.70786e-07 3.41934e-08)
(0.000767814 1.79277e-07 4.88661e-08)
(0.00102283 -2.46021e-07 1.69512e-07)
(0.000765771 -2.30068e-07 3.96851e-08)
(0.00076633 9.83803e-08 4.56667e-08)
(0.00102102 -2.38406e-07 1.43212e-07)
(0.000764417 -3.9451e-07 1.23485e-07)
(0.000765023 -1.79606e-07 6.16981e-08)
(0.00101923 -3.75078e-07 1.7297e-07)
(0.000763096 -3.92268e-07 8.84079e-08)
(0.000763784 -3.77575e-07 1.26915e-07)
(0.00101762 -6.32897e-07 1.6399e-07)
(0.000761059 -2.51843e-07 2.1713e-08)
(0.000762084 1.19682e-06 3.09673e-08)
(0.00101527 -3.91994e-07 8.72513e-08)
(0.00076063 -4.97055e-07 4.5116e-08)
(0.00101277 -3.02079e-07 2.61671e-07)
(-0.00255832 0.00473379 0.00112959)
(-0.00709586 -0.00238824 0.000243162)
(0.00725874 -0.0102804 0.00302725)
(0.0230915 -0.0314935 -0.00128418)
(0.013238 -0.00217222 0.000647879)
(0.021123 -0.00141592 -0.00161686)
(0.00309278 -0.0170219 0.000418103)
(0.0256141 -0.0132049 0.00178745)
(0.0115589 -0.00638195 -0.000425488)
(0.0101513 0.0297666 -0.000582692)
(0.0213415 0.0208698 0.000125871)
(0.00646882 0.0126109 0.00119665)
(0.00848691 0.0100337 0.00129868)
(0.00470341 0.0185021 0.00256541)
(0.000735139 -0.00306841 0.000521183)
(-0.000596488 2.52605e-05 0.00116742)
(0.00630556 -0.0120359 -0.00116106)
(6.09491e-05 -0.00173395 0.000699272)
(0.000255269 0.00113247 -1.19795e-05)
(-0.000434788 0.00221299 0.00096336)
(0.00337827 -0.00320433 -0.000469071)
(0.017372 -0.000680565 0.00453035)
(0.00653876 -0.00208675 -0.00586616)
(-0.00162223 0.00318477 0.00121003)
(-0.00813241 -0.000922612 0.000372042)
(0.00130864 -0.00617961 0.0024665)
(-0.00784493 -0.00433228 0.00109573)
(0.00207391 -0.00385977 -0.000135155)
(0.00488688 -0.00729735 -0.000151897)
(0.000396565 -0.00148874 -3.6019e-05)
(0.00131239 -0.000287362 -0.000508371)
(0.000873747 0.00151209 -5.73913e-05)
(0.00205041 -0.00328911 -2.37547e-05)
(0.00253144 0.000757088 7.15085e-05)
(0.00106243 -0.000654427 0.000178388)
(0.0011639 -6.7175e-05 0.00010538)
(0.0003779 -6.83785e-05 2.35858e-05)
(0.00038521 -2.85761e-05 3.10327e-06)
(0.000332227 -1.25178e-05 5.43965e-06)
(0.000552294 -2.76421e-05 8.88395e-06)
(0.000259829 -1.95954e-05 -1.23693e-07)
(0.000829632 -1.61832e-05 -1.37564e-06)
(0.000558159 -1.76127e-05 -1.40385e-06)
(0.00113072 -4.42861e-05 -1.58279e-06)
(0.000600529 -2.18935e-05 -4.47532e-06)
(0.000592972 -2.26772e-05 -4.65243e-06)
(0.00103894 -2.80981e-05 -4.87041e-06)
(0.00101431 -2.8915e-05 -4.79852e-06)
(0.000558184 -3.46923e-05 -3.97684e-06)
(0.000927741 -2.11174e-05 -9.35156e-07)
(0.000926841 -5.45592e-05 -4.81713e-06)
(0.00081715 -1.99827e-06 -4.3856e-08)
(0.000837634 6.93785e-06 -8.74903e-07)
(0.00109621 8.54383e-06 1.0877e-07)
(0.000816174 -6.48524e-06 4.66694e-08)
(0.000807556 -9.39911e-06 -1.69109e-07)
(0.00108885 -8.84025e-06 1.5901e-07)
(0.000814952 -4.24797e-06 3.49535e-08)
(0.000816151 -5.58496e-06 1.16246e-07)
(0.00108784 -5.09466e-06 1.76338e-07)
(0.000814144 -3.00136e-06 2.9923e-08)
(0.000814638 -4.3677e-06 4.14906e-08)
(0.00108593 -4.07476e-06 1.77541e-07)
(0.000812755 -1.89356e-06 3.30087e-08)
(0.000814051 -2.95523e-06 4.26807e-08)
(0.00108435 -2.54438e-06 1.43313e-07)
(0.000811581 -1.20375e-06 4.50157e-08)
(0.0008127 -2.04381e-06 4.68224e-08)
(0.00108239 -1.65659e-06 1.73248e-07)
(0.00081048 -7.02899e-07 4.44283e-08)
(0.000811435 -1.23122e-06 5.06076e-08)
(0.0010809 -1.04071e-06 1.7805e-07)
(0.000808658 -2.90978e-07 4.72412e-08)
(0.000810011 -4.81466e-07 4.71785e-08)
(0.0010788 -5.15877e-07 1.74419e-07)
(0.000807491 3.12476e-08 6.61396e-08)
(0.000808498 -7.61033e-07 7.18888e-09)
(0.00107672 -7.07146e-08 1.77537e-07)
(0.00080622 2.96585e-07 6.95688e-08)
(0.000807108 -6.38956e-07 5.26002e-08)
(0.0010752 2.55804e-07 1.80757e-07)
(0.000804795 3.47729e-07 4.46537e-08)
(0.000805432 -5.02014e-07 7.74166e-08)
(0.00107331 5.84155e-07 1.74949e-07)
(0.000803271 2.39701e-07 5.64038e-08)
(0.000803846 1.77626e-08 3.49817e-08)
(0.00107128 3.69425e-07 1.82076e-07)
(0.000801925 1.99698e-07 6.77568e-08)
(0.000802578 3.62056e-07 8.90389e-08)
(0.00106943 3.03749e-07 1.38664e-07)
(0.000800216 3.3081e-07 9.65705e-08)
(0.00080119 1.04665e-07 4.91259e-08)
(0.00106736 2.65209e-07 1.56961e-07)
(0.000798775 3.85777e-07 9.04088e-08)
(0.000799532 -1.25323e-06 9.62476e-08)
(0.00106509 6.59173e-07 3.02128e-07)
(0.000797524 2.40385e-07 5.39666e-08)
(0.000797934 2.18579e-07 -2.66323e-08)
(0.00106349 4.48758e-07 1.46247e-07)
(0.000796034 1.97089e-07 6.67963e-08)
(0.000796557 -4.48635e-08 5.8193e-08)
(0.00106176 2.8183e-07 2.13495e-07)
(0.000794225 1.56672e-07 9.42154e-08)
(0.00079503 -1.05081e-07 4.74922e-08)
(0.00105936 2.90023e-07 9.13275e-08)
(0.000792643 -3.48168e-08 8.51203e-08)
(0.000793418 -7.68005e-09 9.15286e-08)
(0.00105707 1.53522e-07 1.1999e-07)
(0.000791197 -4.83908e-07 5.51574e-08)
(0.000791781 -1.05442e-08 5.52881e-08)
(0.00105516 -2.21095e-07 1.723e-07)
(0.000789458 -6.15532e-07 6.86775e-08)
(0.000790314 1.24944e-06 8.89623e-09)
(0.001053 -1.06676e-06 1.76192e-07)
(0.000787846 -4.1941e-07 1.0218e-07)
(0.000788846 -2.73999e-07 4.67843e-08)
(0.00105065 -5.85596e-07 1.79882e-07)
(0.000786902 -3.20187e-07 8.88942e-08)
(0.000787576 -2.59659e-09 1.08604e-07)
(0.0010491 -5.35377e-07 2.57883e-07)
(0.000785667 5.91682e-08 1.19607e-07)
(0.000786567 -7.56481e-08 5.59743e-08)
(0.00104763 -3.14499e-07 2.28192e-07)
(0.000784366 4.21019e-07 2.16047e-07)
(0.000785239 5.77776e-07 2.42291e-07)
(0.00104592 5.16122e-07 1.38385e-07)
(0.000783193 2.38395e-07 1.43631e-07)
(0.000783534 7.96571e-07 1.86739e-07)
(0.00104437 6.89971e-07 9.91777e-08)
(0.000781075 3.45486e-08 4.09704e-08)
(0.000781896 8.51101e-07 6.8696e-08)
(0.00104207 2.42695e-08 1.79983e-07)
(0.00077975 9.97176e-08 4.54994e-08)
(0.000780505 -5.12535e-08 4.40773e-08)
(0.00103971 1.25689e-07 1.70055e-07)
(0.000778542 1.4362e-07 5.5545e-08)
(0.000779105 -1.89246e-07 5.54503e-08)
(0.00103807 1.73766e-07 1.65368e-07)
(0.000776932 2.42802e-07 4.37743e-08)
(0.000777698 1.71628e-07 5.02726e-08)
(0.00103628 2.57392e-07 1.83905e-07)
(0.000775469 3.81111e-07 2.04453e-08)
(0.000776225 4.04215e-07 3.99872e-08)
(0.00103414 4.81599e-07 1.6165e-07)
(0.000773727 2.60005e-07 3.53306e-08)
(0.000774533 -5.8516e-07 1.90522e-08)
(0.00103192 5.93525e-07 1.74658e-07)
(0.000772419 -5.2188e-08 6.51165e-08)
(0.000772951 -1.45995e-07 6.72542e-08)
(0.00102995 1.05767e-07 1.79622e-07)
(0.000771089 -3.49934e-07 4.49739e-08)
(0.000771495 -1.9784e-07 6.12011e-08)
(0.00102811 -2.28338e-07 1.71138e-07)
(0.000769833 -4.23873e-07 6.1443e-08)
(0.000770514 -7.57166e-07 3.36978e-08)
(0.00102636 -6.66883e-07 1.82697e-07)
(0.000768563 -2.16628e-07 7.94705e-08)
(0.000769571 -2.44552e-08 8.96149e-08)
(0.0010249 -4.96342e-07 1.33399e-07)
(0.000767163 -8.65426e-08 6.03405e-08)
(0.000767979 2.46962e-08 6.70221e-08)
(0.00102305 -1.70666e-07 1.81531e-07)
(0.000765478 1.66173e-08 6.76748e-08)
(0.00076646 1.16184e-07 5.79012e-08)
(0.00102092 -1.33962e-07 1.95e-07)
(0.00076447 -7.43208e-09 6.51089e-08)
(0.000764993 -1.438e-06 1.25283e-07)
(0.00101919 1.27254e-07 2.26445e-07)
(0.00076294 -2.51259e-07 6.95038e-08)
(0.00076348 -3.09043e-07 6.03738e-08)
(0.00101746 -1.55091e-07 1.77248e-07)
(0.000761365 -3.19215e-07 5.4366e-08)
(0.000762003 3.91918e-07 7.2216e-08)
(0.00101528 -5.0145e-07 2.45318e-07)
(0.000761027 1.63843e-07 4.77878e-08)
(0.0010139 -3.37376e-07 8.00145e-08)
(-0.00945945 -0.000480629 0.000423789)
(-0.00554921 -0.0162383 0.000129461)
(-0.00448119 -0.00402161 0.00012024)
(-0.00292851 -0.0111501 0.00096802)
(-0.00706139 0.00617885 0.000407729)
(-0.0106034 0.000548947 0.00225641)
(-0.00400393 0.00569284 0.000218278)
(0.00571952 -0.00544373 0.00142549)
(0.00269128 -0.00105752 0.000393565)
(-0.00287639 -0.00440363 0.00580453)
(0.020257 0.00634706 0.000572367)
(0.0139257 0.00105222 0.000508882)
(0.0140298 0.014746 0.00198076)
(0.00454907 -0.00200613 0.00162574)
(0.019042 0.00144146 -0.00520594)
(0.00289335 -0.00527674 0.00284341)
(0.00262217 -0.000945159 0.00133475)
(0.0099376 -0.0147627 8.7072e-05)
(0.00945191 0.00244872 4.10744e-05)
(0.0139539 -0.0210392 -4.21082e-05)
(0.0121602 0.00750562 -0.00118804)
(0.0105373 -0.00267671 3.59246e-05)
(0.00565939 -4.21023e-06 -1.69999e-05)
(0.00463032 -0.00343458 -0.000136699)
(0.00268392 0.00580391 0.000357318)
(-0.00563306 -0.0124534 -0.000631288)
(0.00741841 0.00347725 0.000320954)
(0.00531538 -0.00918718 0.00130313)
(0.0108671 -0.00288933 0.00105517)
(0.00448237 0.0030243 0.000731976)
(0.00111004 -0.0123945 -0.00124863)
(-0.00484845 -0.00272123 4.1807e-05)
(0.00732099 -0.00442691 -3.73791e-05)
(-0.00389827 0.00190767 0.00516863)
(-0.00175331 -0.000141614 1.79704e-05)
(-0.0049231 -0.00381374 -9.53264e-05)
(-0.00478434 -0.00310751 -0.00036247)
(0.0035621 -0.000201457 0.00305297)
(0.00429549 0.00696575 -0.00172638)
(-0.00251825 -0.00249114 -0.00266288)
(-0.00908653 0.000601972 0.000494119)
(0.0107121 -0.00345958 0.000492593)
(-0.0151986 0.000483576 0.00146721)
(0.00858468 0.00123264 0.000533278)
(0.000192636 -0.0012499 0.000150635)
(0.0102165 -0.000774825 0.000109676)
(0.00483657 0.00186937 0.00175103)
(-0.00308802 -0.0043566 -2.81686e-05)
(-0.00344294 -0.00221767 -0.000104365)
(-0.00332726 -0.00239799 -0.000171796)
(-0.00514975 -0.00539413 -0.000249874)
(-0.000989413 0.000752463 -7.14802e-05)
(-0.00103534 0.000640681 -5.95915e-05)
(0.000266679 0.000889154 -5.69784e-05)
(-7.29444e-05 0.00177117 -9.7954e-05)
(-0.000493507 0.00121416 -0.000178208)
(0.00127108 0.00014437 3.55245e-05)
(0.000467818 -0.000224184 4.08106e-05)
(0.000592733 -0.000160535 1.64704e-05)
(0.000643425 -0.000135624 6.34968e-05)
(0.000467139 -0.000109294 2.22263e-05)
(0.000442508 -2.19057e-05 -1.45782e-07)
(0.000457882 -2.11096e-05 -2.90158e-06)
(0.000430754 -2.31812e-05 1.61146e-07)
(0.00069183 -1.59993e-05 -9.03e-07)
(0.000805573 -1.07265e-05 -1.00039e-06)
(0.000873526 -2.77882e-05 -1.48599e-06)
(0.00113975 -6.12604e-06 -9.049e-07)
(0.000574113 -2.21674e-05 -3.64372e-06)
(0.000584311 -2.14148e-05 -5.02457e-06)
(0.000947253 -4.21121e-05 -4.4842e-06)
(0.000959972 -3.96421e-05 -6.40065e-06)
(0.000813183 -1.07163e-05 -9.96255e-08)
(0.000807557 -1.946e-05 -4.25188e-07)
(0.00106551 -1.55574e-05 8.15874e-08)
(0.000815145 -6.50208e-06 1.22807e-07)
(0.000821419 -1.04511e-05 1.82038e-07)
(0.00108844 -8.54139e-06 2.11831e-07)
(0.000815012 -4.38498e-06 5.4248e-08)
(0.000817284 -6.14969e-06 1.8921e-08)
(0.00108583 -5.97502e-06 1.7988e-07)
(0.000813985 -2.82201e-06 5.64931e-08)
(0.000816005 -3.65869e-06 5.93009e-08)
(0.00108555 -3.93808e-06 1.83105e-07)
(0.000812562 -1.74826e-06 5.24131e-08)
(0.000814043 -2.19981e-06 5.11479e-08)
(0.00108372 -2.47554e-06 1.79676e-07)
(0.000811083 -1.12041e-06 5.33589e-08)
(0.00081222 -1.31787e-06 5.13043e-08)
(0.0010817 -1.49701e-06 1.79866e-07)
(0.000809806 -6.75932e-07 7.13908e-09)
(0.000810567 -8.4668e-07 5.22238e-08)
(0.00107991 -1.06165e-06 1.81769e-07)
(0.000808124 -3.08341e-07 -6.36518e-09)
(0.000808958 -5.01316e-07 4.96845e-09)
(0.00107791 -4.78158e-07 1.73886e-07)
(0.000806443 -1.95822e-07 6.04399e-08)
(0.000807249 1.08796e-07 6.37783e-08)
(0.0010757 -1.93705e-07 1.40199e-07)
(0.000804318 -1.43973e-07 6.77582e-08)
(0.000805497 3.6209e-07 6.44329e-08)
(0.00107309 -2.62686e-07 1.70562e-07)
(0.000803157 -4.49631e-08 6.75995e-08)
(0.00080397 -4.21304e-07 3.33438e-08)
(0.00107087 -9.62892e-08 1.77442e-07)
(0.000801891 -4.09265e-08 7.04208e-08)
(0.000802583 -4.30788e-07 8.35271e-08)
(0.00106931 -5.79949e-09 2.11034e-07)
(0.000800612 -4.19309e-08 4.87879e-08)
(0.000801188 -1.83101e-07 4.88361e-08)
(0.00106764 -7.8762e-08 1.77351e-07)
(0.000798565 1.45743e-08 -2.07543e-08)
(0.000799602 -5.21747e-07 1.83293e-08)
(0.00106549 2.15902e-08 1.73444e-07)
(0.000796946 7.06137e-09 -2.24328e-08)
(0.000797924 -1.50906e-07 -1.85698e-08)
(0.00106285 1.15801e-07 2.12923e-07)
(0.000795628 -7.13594e-08 3.88922e-08)
(0.000796459 -2.12511e-07 3.68221e-08)
(0.00106088 -2.59862e-08 1.72829e-07)
(0.000794202 -1.28659e-07 4.47915e-08)
(0.000794958 -1.97627e-07 2.98686e-08)
(0.00105916 -1.3368e-07 1.77186e-07)
(0.000792605 -1.08786e-07 6.17079e-08)
(0.000793442 -3.92472e-08 5.92734e-08)
(0.00105713 -1.5768e-07 1.8799e-07)
(0.000790788 -6.41219e-08 9.04158e-09)
(0.000791837 -1.08001e-07 7.15323e-08)
(0.00105467 -6.79987e-08 2.12201e-07)
(0.000789821 2.15021e-07 -1.30088e-08)
(0.000790662 -8.05239e-07 2.5326e-08)
(0.00105295 -4.42245e-08 2.75517e-07)
(0.000788327 6.12208e-07 5.31889e-08)
(0.000789341 -1.22769e-06 2.11854e-08)
(0.00105143 6.67102e-07 2.44617e-07)
(0.000787368 7.0978e-07 7.57003e-08)
(0.000787695 -1.01382e-06 6.53823e-08)
(0.00104959 9.99382e-07 2.0162e-07)
(0.000786165 5.61967e-07 1.78601e-07)
(0.00078638 -1.89517e-06 3.45171e-08)
(0.00104837 9.07282e-07 2.80863e-07)
(0.000784513 3.90098e-07 2.13001e-07)
(0.000785022 4.45573e-07 1.67098e-07)
(0.00104654 5.98475e-07 2.01116e-07)
(0.000782123 1.5992e-07 1.11841e-07)
(0.000783245 1.44427e-07 9.11952e-08)
(0.00104349 4.36046e-07 3.03972e-07)
(0.000781317 4.72267e-08 7.18106e-08)
(0.000781755 1.44318e-07 6.87916e-08)
(0.00104142 -1.21876e-08 1.67108e-07)
(0.000779869 1.09633e-07 5.40247e-08)
(0.000780582 -8.38474e-08 1.36272e-07)
(0.00104008 1.37731e-07 1.76286e-07)
(0.000778274 6.15947e-08 5.01795e-08)
(0.000779045 6.75966e-08 5.4977e-08)
(0.00103797 1.45778e-07 1.68901e-07)
(0.000776932 3.79973e-08 4.64886e-08)
(0.000777668 8.62136e-08 4.84768e-08)
(0.00103602 1.81559e-08 1.70886e-07)
(0.000775481 -8.54534e-09 3.86006e-08)
(0.000776167 5.1016e-07 2.56622e-08)
(0.00103417 6.44925e-08 1.66874e-07)
(0.000773551 -3.6945e-08 5.09609e-08)
(0.000774498 1.49874e-07 3.86148e-08)
(0.00103186 -1.00729e-07 1.64907e-07)
(0.000772127 -2.18394e-08 6.33407e-08)
(0.00077297 9.6161e-08 6.13208e-08)
(0.00102962 -1.44558e-09 1.54785e-07)
(0.000770595 2.22899e-07 4.99335e-08)
(0.000771801 2.59068e-07 4.51747e-08)
(0.00102755 -4.64876e-08 1.49057e-07)
(0.000770638 3.78406e-07 6.18525e-08)
(0.000770706 -2.27016e-06 4.30694e-08)
(0.00102664 6.92272e-07 1.49222e-07)
(0.000768907 2.06864e-07 7.71734e-08)
(0.000769354 2.61434e-07 4.48519e-08)
(0.00102563 4.08593e-07 1.79608e-07)
(0.000767281 1.82821e-07 6.45856e-08)
(0.000767947 1.52354e-07 5.83873e-08)
(0.00102329 2.61776e-07 1.81506e-07)
(0.000765914 3.16721e-07 1.15489e-07)
(0.000766626 -1.02591e-07 4.73516e-08)
(0.0010214 3.17743e-07 1.83368e-07)
(0.000764028 3.07074e-07 1.20568e-07)
(0.000764979 1.32068e-07 1.27526e-07)
(0.00101921 5.57329e-07 1.00304e-07)
(0.000762542 1.55355e-07 6.30824e-08)
(0.00076329 -5.64325e-08 4.5401e-08)
(0.00101684 2.79515e-07 1.598e-07)
(0.000761451 1.00103e-07 6.56453e-08)
(0.000761932 -1.82966e-07 5.20315e-08)
(0.00101505 1.6188e-07 1.84202e-07)
(0.000760902 1.50498e-07 6.05471e-08)
(0.00101382 1.10658e-07 1.58021e-07)
(0.00202008 0.002529 5.63757e-05)
(-0.0022735 -0.00216438 0.000264599)
(-0.00149518 -0.000623762 -0.00291461)
(-0.00463384 0.00234565 0.000258274)
(-0.00775571 -0.0081442 0.000926364)
(-0.0140604 0.0229381 0.000979655)
(-0.000216779 0.00685185 0.00289295)
(0.0102579 0.0139855 0.0070945)
(0.0121054 0.00963752 -0.00698155)
(0.00215486 0.00749117 -0.000245586)
(0.0065659 0.00609357 -0.000295887)
(0.00406246 0.00755402 -0.00103695)
(0.0089316 0.011883 -0.00152473)
(0.00315373 -0.0022912 6.68286e-05)
(0.00437694 0.0031879 -0.000354098)
(0.00713825 0.00153123 0.000402007)
(0.00631495 -0.00235408 -0.000276895)
(0.000429672 -0.00138107 -6.83836e-06)
(0.00416851 0.00159574 -0.000337156)
(-0.0012879 -0.0110531 0.000275218)
(-0.00632916 -0.00284929 0.000838942)
(-0.00084031 -0.00436561 0.00172352)
(0.0124431 -0.00320382 0.000161476)
(0.00132479 0.0057376 0.000402616)
(0.00824117 -0.0112951 -0.000308431)
(-0.000281145 -0.000112417 0.000123316)
(0.0142126 0.00499951 0.000227261)
(0.0138723 -0.00300103 8.30222e-05)
(-0.00695553 0.000196674 -0.000226842)
(-0.00857717 0.00176055 -0.000357724)
(-0.00791391 0.00204804 -2.51598e-05)
(-0.0127169 0.00021494 -0.00071481)
(-0.0156021 0.00117283 0.000130472)
(0.00155109 -0.00162979 -1.40314e-05)
(0.00118893 -0.00037449 -0.000139923)
(0.00119903 0.00324003 -8.19246e-05)
(0.00707545 -0.000742464 -0.000135554)
(0.00367435 -0.00296746 -6.05138e-05)
(0.000346674 0.000189012 4.21338e-05)
(0.00114895 0.000511087 0.000115468)
(0.000748383 -1.51201e-05 0.000119758)
(0.000734071 -0.000116939 1.45975e-05)
(0.000594994 -0.000114296 6.04325e-05)
(0.000306892 -3.8981e-05 -1.70445e-06)
(0.00047801 -4.94455e-05 -3.25721e-06)
(0.000458558 -6.37181e-05 -2.36501e-07)
(0.000731067 -9.80043e-05 -1.03953e-06)
(0.000329873 -4.61064e-05 -1.09552e-06)
(0.000563191 -6.46412e-05 2.39825e-06)
(0.00062023 -8.32117e-05 4.13923e-06)
(0.000443783 -5.07009e-05 -5.36877e-08)
(0.000829388 -2.79305e-05 -9.11143e-07)
(0.000912445 -2.90975e-05 -1.34656e-06)
(0.00118688 -4.4032e-05 -1.05548e-06)
(0.000609931 -3.61866e-05 -3.77884e-06)
(0.000621454 -4.00952e-05 -4.75669e-06)
(0.00100183 -6.17578e-05 -4.77709e-06)
(0.00102743 -7.12086e-05 -6.08118e-06)
(0.000825759 -1.4932e-05 -1.43723e-07)
(0.000823831 -1.47464e-05 -5.19806e-07)
(0.00108576 -2.36815e-05 3.26084e-08)
(0.000821791 -7.85211e-06 7.82047e-08)
(0.000830286 -7.78628e-06 1.63129e-07)
(0.0010998 -1.19978e-05 2.04049e-07)
(0.000818633 -4.34907e-06 2.39608e-08)
(0.000821669 -4.00879e-06 2.2774e-08)
(0.00109168 -6.41601e-06 1.7028e-07)
(0.00081596 -2.47189e-06 5.39584e-08)
(0.000818354 -2.28155e-06 9.98748e-08)
(0.00108871 -3.63554e-06 1.81495e-07)
(0.000813663 -1.37976e-06 5.00391e-08)
(0.000815409 -1.2614e-06 4.96587e-08)
(0.00108543 -2.00926e-06 1.79584e-07)
(0.00081163 -7.8577e-07 5.0169e-08)
(0.000812963 -7.04318e-07 4.58929e-08)
(0.00108266 -1.07817e-06 1.79265e-07)
(0.00080975 -5.61046e-07 5.00685e-08)
(0.000810848 -4.13587e-07 4.99644e-08)
(0.00108007 -6.35559e-07 1.78801e-07)
(0.000808091 -5.07307e-07 7.5093e-08)
(0.000809025 -2.69331e-07 5.22174e-08)
(0.0010778 -6.14521e-07 1.73836e-07)
(0.000806327 -5.22436e-07 6.77711e-08)
(0.000807231 -4.12268e-08 7.66369e-08)
(0.00107547 -5.71456e-07 2.09346e-07)
(0.000805 -5.25582e-07 3.00284e-08)
(0.000805494 4.15072e-08 4.50863e-08)
(0.00107343 -7.11232e-07 1.83483e-07)
(0.000803453 -3.85431e-07 4.92553e-08)
(0.000804147 -3.1728e-07 6.92259e-08)
(0.0010716 -6.1721e-07 1.7326e-07)
(0.000801837 -2.80225e-07 6.19535e-08)
(0.000802716 -3.12404e-07 7.28397e-08)
(0.00106945 -3.65063e-07 1.78161e-07)
(0.000800316 -3.12503e-07 1.83873e-08)
(0.000801149 -1.702e-07 1.75245e-07)
(0.00106739 -3.5242e-07 1.77477e-07)
(0.000798777 -2.28841e-07 2.05255e-08)
(0.000799708 1.0404e-06 3.98043e-08)
(0.00106533 -4.71358e-07 7.12554e-08)
(0.000797544 -2.366e-08 4.06674e-08)
(0.000798181 -5.74977e-08 7.90387e-08)
(0.00106343 -1.74682e-07 1.46975e-07)
(0.000795763 1.19076e-07 2.78006e-08)
(0.000796637 1.08427e-07 5.05332e-08)
(0.00106145 6.35326e-08 1.79209e-07)
(0.000794173 1.9854e-07 4.43412e-08)
(0.000795057 -1.49311e-08 4.71761e-08)
(0.0010592 2.23136e-07 1.72228e-07)
(0.000792743 2.73918e-07 6.9094e-08)
(0.000793535 -1.44558e-08 6.33328e-08)
(0.00105715 3.02019e-07 1.69438e-07)
(0.000791483 5.74889e-07 8.78314e-08)
(0.000792211 -5.10494e-07 5.36894e-08)
(0.0010553 4.74112e-07 1.84716e-07)
(0.000790477 7.19148e-07 5.95215e-08)
(0.000790839 -2.43543e-06 4.6372e-08)
(0.00105392 1.14805e-06 2.49076e-07)
(0.000788515 6.98868e-07 3.33649e-08)
(0.000789312 3.46184e-07 2.31755e-08)
(0.00105194 8.52628e-07 1.07407e-07)
(0.000786783 8.13789e-07 2.42089e-08)
(0.000787835 -3.78371e-07 4.73611e-08)
(0.00104939 1.05807e-06 1.53617e-07)
(0.000785163 5.51328e-07 2.29729e-08)
(0.000786049 -8.26066e-07 2.52259e-08)
(0.00104713 1.14843e-06 1.12952e-07)
(0.000783989 1.02883e-07 4.53163e-08)
(0.000784459 2.34026e-08 5.1306e-08)
(0.00104532 3.46963e-07 1.79282e-07)
(0.000782521 7.9807e-08 4.81528e-08)
(0.000783216 1.68552e-07 5.03736e-08)
(0.0010436 -6.06143e-08 1.73804e-07)
(0.000781223 1.45683e-07 1.33232e-07)
(0.000781836 3.40291e-07 5.6886e-08)
(0.00104169 2.78405e-07 1.4659e-07)
(0.000779741 4.484e-08 1.37249e-07)
(0.000780456 5.28898e-08 1.34321e-07)
(0.0010399 1.03421e-07 1.6727e-07)
(0.000778344 2.16504e-08 5.32763e-08)
(0.000779016 4.62824e-08 4.91079e-08)
(0.00103792 1.05766e-08 1.71099e-07)
(0.00077704 -1.17078e-07 2.76575e-08)
(0.000777495 -3.52122e-08 5.86344e-08)
(0.00103618 2.6168e-08 1.70025e-07)
(0.000775139 -2.08916e-07 2.56724e-08)
(0.000776053 2.20647e-06 5.40316e-08)
(0.00103399 -3.63349e-07 9.31415e-08)
(0.000773934 -1.26944e-08 4.89677e-08)
(0.000774744 -1.38787e-07 6.79384e-08)
(0.00103184 -2.11086e-07 1.73313e-07)
(0.000772434 2.913e-07 4.31598e-08)
(0.00077335 1.98949e-07 6.90641e-08)
(0.00103002 1.56061e-07 1.71668e-07)
(0.000772053 5.83412e-07 3.83113e-08)
(0.000772164 -3.57632e-07 9.39764e-08)
(0.00102897 6.05649e-07 1.22738e-07)
(0.000769454 5.37115e-07 2.60683e-08)
(0.000770646 -1.12174e-06 4.9358e-08)
(0.00102693 9.43214e-07 1.95656e-07)
(0.000768353 2.03237e-07 2.60616e-08)
(0.000768935 4.81642e-07 -5.37138e-08)
(0.00102436 5.26911e-07 1.27233e-07)
(0.000767274 2.97906e-08 4.11567e-08)
(0.000767729 8.83722e-08 3.71519e-08)
(0.00102293 9.12653e-08 1.45848e-07)
(0.00076593 -2.63794e-08 5.93639e-08)
(0.000766555 1.13695e-08 4.42442e-08)
(0.00102129 4.47571e-08 1.57014e-07)
(0.000763933 -4.79366e-09 5.23839e-08)
(0.000765006 -4.1722e-07 2.16877e-08)
(0.00101914 -8.41912e-08 2.64867e-07)
(0.000762796 1.55745e-07 3.4348e-08)
(0.00076349 -3.42122e-07 2.03649e-08)
(0.00101696 9.5323e-08 1.6724e-07)
(0.000761195 2.35058e-07 4.69307e-08)
(0.000762028 9.06381e-08 2.9774e-08)
(0.00101506 3.24139e-07 1.68836e-07)
(0.00076061 3.24887e-07 7.12297e-08)
(0.00101356 2.99325e-07 1.28993e-07)
(-0.00611519 -0.00311556 0.000288824)
(-0.000717523 -0.00780536 0.000160212)
(-0.00949179 -0.0101186 0.000923614)
(0.0117866 -0.00304959 -0.000293132)
(-0.00883404 0.00832908 -0.000983897)
(0.000807041 0.00455407 -0.00171931)
(-0.00047833 0.00172869 -0.000219464)
(0.00356379 -0.00206441 -0.000363239)
(0.00108919 -0.0100793 0.000695351)
(-0.0122081 -0.0055766 0.00101859)
(-0.00548607 0.00283255 0.000851768)
(-0.0178371 -0.00327588 0.00068869)
(-0.00575341 0.00226904 0.000838854)
(-0.00190832 0.00491498 -0.00180286)
(-0.00467294 -0.00339095 -0.00187034)
(0.000602713 0.00119351 -0.00286687)
(-0.00337963 -0.00623887 -0.00955075)
(-0.0119335 -0.00213175 -0.0137567)
(-0.0136261 0.0198405 0.0268469)
(-0.0130092 0.00949089 -8.48099e-05)
(-0.00165666 0.000733869 -0.000493065)
(-0.0111952 0.00320916 -0.000369769)
(-0.0073251 0.0030514 -0.00110672)
(0.00171991 0.000903532 3.72538e-05)
(-0.00215782 0.00160954 0.000210394)
(-0.00321935 0.00419208 8.43237e-05)
(0.000286814 0.00429337 0.000329673)
(-0.00075652 0.00278073 0.000486175)
(0.00471617 0.00142764 -5.8446e-05)
(0.000778116 0.00147773 -4.71932e-08)
(-0.00102734 0.00283669 -3.89918e-05)
(-4.46669e-05 0.000453404 -3.26244e-05)
(-0.000901873 0.00199286 -5.12743e-06)
(-0.000629384 0.00477121 -0.000117411)
(0.00122586 -9.8828e-05 -1.85759e-05)
(0.001605 0.000186025 -4.92146e-05)
(0.00168031 -7.20321e-05 7.43396e-06)
(0.00179509 0.00013728 -1.04351e-05)
(0.00155665 0.000700853 8.41085e-05)
(0.000393121 -5.62162e-05 8.39918e-06)
(0.000540604 -3.6839e-05 -3.52713e-06)
(0.000535025 -1.94405e-05 -2.43939e-07)
(0.000865681 -6.72822e-05 1.66729e-06)
(0.000428874 -4.59916e-05 6.63723e-07)
(0.000709082 -0.000121236 2.51893e-05)
(0.000825859 -9.52237e-05 3.48904e-06)