/*--------------------------------*- C++ -*----------------------------------*\
| =========                 |                                                 |
| \\      /  F ield         | OpenFOAM: The Open Source CFD Toolbox           |
|  \\    /   O peration     | Version:  5.0                                   |
|   \\  /    A nd           | Web:      www.OpenFOAM.org                      |
|    \\/     M anipulation  |                                                 |
\*---------------------------------------------------------------------------*/
FoamFile
{
    version     2.0;
    format      ascii;
    class       surfaceScalarField;
    location    "3.5";
    object      alphaPhi10;
}
// * * * * * * * * * * * * * * * * * * * * * * * * * * * * * * * * * * * * * //

dimensions      [0 3 -1 0 0 0 0];

internalField   nonuniform List<scalar> 
27091
(
2.46563e-08
2.22504e-08
8.59025e-10
1.62704e-08
2.65517e-08
2.74893e-08
1.68811e-08
2.29839e-08
-2.07139e-08
3.02833e-09
2.93263e-08
-2.42981e-07
-6.89195e-08
2.79877e-08
3.82969e-08
3.26573e-08
3.85271e-08
3.68028e-08
2.25136e-08
2.36085e-08
2.30376e-08
1.3605e-08
-8.0424e-10
1.87028e-08
-2.12972e-08
-5.77115e-09
-1.85222e-09
6.82116e-10
1.02252e-08
-2.92184e-11
6.27769e-08
6.27798e-08
6.27763e-08
2.23158e-22
1.75257e-18
-4.28805e-22
1.6505e-19
9.59011e-19
-3.02336e-18
2.81005e-20
1.74463e-18
1.88197e-18
1.7448e-18
3.72308e-26
1.5607e-22
1.27582e-25
9.30765e-27
3.2323e-26
4.98525e-29
4.62278e-28
1.3312e-29
3.84906e-30
9.27819e-31
8.20566e-31
9.58606e-32
1.1143e-34
1.01306e-33
-7.44756e-34
1.30747e-38
9.65313e-38
1.19567e-36
4.59391e-42
2.23079e-41
-1.0292e-40
1.86701e-45
8.90363e-45
-9.89909e-44
7.64598e-49
1.52921e-48
5.33229e-47
3.15423e-52
3.67877e-52
2.46854e-49
1.29692e-55
1.14454e-55
-1.55896e-52
5.34511e-59
2.54857e-59
-1.44291e-55
2.24891e-62
1.31536e-62
-1.08475e-58
9.40898e-66
3.26889e-66
-1.88603e-62
3.90163e-69
1.58002e-69
-6.32765e-65
1.64636e-72
7.22251e-74
9.27014e-70
9.0155e-76
-9.29666e-78
2.47764e-72
5.41324e-79
-1.97989e-79
9.0319e-75
1.58412e-82
-2.5967e-84
-3.22502e-78
1.34206e-85
7.01142e-87
-2.6855e-81
3.07098e-88
-4.34563e-89
7.87252e-84
4.60908e-92
-1.71784e-93
1.1776e-87
5.13476e-95
2.51989e-95
6.12295e-92
1.01501e-98
7.01057e-100
-1.57661e-94
1.6381e-101
7.93756e-104
3.97718e-98
4.02843e-104
-2.51384e-104
1.36244e-99
7.60263e-108
8.5605e-109
-3.09664e-104
4.70311e-111
1.05415e-112
-4.09523e-106
6.54299e-114
2.27597e-115
-2.61071e-109
1.54749e-116
1.73823e-117
-1.14763e-112
1.41316e-120
-1.7346e-121
1.88467e-118
4.98387e-124
-5.07967e-125
4.91857e-125
4.99015e-127
1.67721e-128
-6.31162e-123
7.70721e-130
1.81839e-131
-1.07346e-125
1.28972e-132
1.71427e-133
-4.17634e-128
2.35447e-135
7.06561e-136
-7.47512e-132
3.60674e-139
-1.56952e-140
6.43823e-136
2.46913e-142
7.58351e-143
-1.61828e-137
5.34872e-146
8.05827e-148
-7.28974e-142
9.00669e-149
-2.05942e-152
6.05038e-147
1.00012e-150
4.00652e-152
-9.59109e-148
9.63037e-156
1.20283e-155
-7.7026e-09
2.51836e-08
1.90803e-08
2.56301e-08
1.24563e-08
1.66226e-08
3.23556e-08
8.34674e-08
4.7725e-08
-1.11151e-08
2.08497e-08
-1.32087e-08
-3.70184e-09
-7.38187e-09
5.03942e-08
-8.71133e-10
-7.62479e-08
7.3389e-09
-4.3946e-09
3.70891e-08
4.05332e-08
3.82227e-08
-7.43338e-08
2.48717e-08
-5.11964e-09
2.48655e-08
-6.94293e-09
-5.44006e-10
-1.36485e-08
-3.62261e-11
-6.00216e-12
1.78214e-08
6.55923e-11
1.78148e-08
-1.47641e-18
1.74486e-18
2.76599e-08
1.84348e-18
1.61645e-24
-1.90728e-22
1.29791e-23
6.66626e-22
6.79398e-22
8.79094e-22
7.59734e-22
-5.21517e-28
2.67569e-26
1.66532e-26
1.02654e-28
4.00183e-27
3.07833e-30
4.34168e-31
5.53083e-30
4.36158e-32
1.25953e-34
-4.92276e-34
1.69407e-34
7.01353e-39
-1.47905e-37
2.39598e-38
2.04076e-42
-8.54855e-42
2.78365e-42
8.12036e-46
-1.70104e-45
-4.98048e-44
3.2848e-49
-5.40924e-49
2.67477e-48
1.33414e-52
-2.54741e-52
-4.40925e-50
5.41564e-56
-7.11582e-57
-2.57581e-53
2.19152e-59
8.6916e-60
-7.72358e-58
8.89799e-63
-6.04592e-63
7.05541e-63
3.63166e-66
3.57084e-67
5.72013e-65
1.50488e-69
-1.66904e-69
1.44719e-66
6.19529e-73
-1.02523e-72
3.79675e-70
2.53207e-76
3.61949e-77
1.54458e-73
1.12129e-79
1.05878e-79
1.3387e-75
5.02276e-83
-4.54481e-83
-3.21231e-80
2.00307e-86
6.49181e-87
-2.29334e-82
9.70658e-90
7.34168e-90
-7.10278e-85
3.8676e-93
1.64382e-93
1.16035e-88
2.582e-96
9.07247e-98
-5.09043e-92
2.54402e-99
2.47315e-100
-8.56982e-95
8.26679e-103
-1.41542e-100
-2.51635e-99
1.36966e-105
-2.12456e-103
6.50006e-100
3.41027e-109
2.06056e-109
-1.46899e-104
3.2578e-112
4.57367e-112
4.15257e-107
8.00541e-116
-2.20821e-115
-1.03643e-110
2.08726e-118
1.51336e-120
6.12736e-120
3.00973e-120
-1.02905e-121
-9.60164e-118
2.18564e-124
-1.38852e-124
4.96323e-120
7.36596e-128
-2.31137e-127
-1.11345e-123
6.69484e-131
2.28764e-131
-7.25328e-126
1.29889e-134
-2.70523e-134
-2.89529e-129
5.04588e-138
9.02543e-139
1.58541e-138
3.21052e-141
8.91192e-142
8.16259e-136
1.74953e-144
8.99059e-146
-7.89677e-139
5.66352e-148
-7.06725e-147
-5.11117e-143
2.03185e-151
-1.67469e-150
4.28891e-147
2.20666e-153
2.28472e-155
5.95203e-151
1.06477e-157
-2.25443e-152
-1.28906e-08
2.60101e-08
2.46383e-08
2.01438e-08
4.94983e-08
8.80026e-08
-1.50664e-09
8.40605e-08
5.62918e-08
-1.00822e-07
-2.65012e-08
1.32304e-07
7.80526e-08
8.49233e-08
8.18793e-08
1.87958e-08
2.41677e-09
3.03797e-08
-4.48289e-08
2.56647e-08
-3.40871e-08
-1.10883e-09
-3.92554e-08
-2.45253e-08
-4.11689e-09
-2.246e-08
-2.02187e-08
-1.84199e-07
1.38722e-07
6.72328e-08
2.12307e-07
-6.14185e-08
-9.38281e-08
-2.52022e-08
-2.20114e-08
9.31574e-08
-1.57805e-09
-3.86317e-09
2.13444e-09
5.50922e-09
3.50731e-10
2.40616e-10
1.13409e-10
1.22021e-09
-1.4958e-10
1.52825e-09
2.37197e-18
-1.35652e-18
-5.74826e-09
-4.75762e-18
-8.14313e-17
1.64614e-17
6.38512e-17
-2.25165e-18
1.81299e-23
-2.52287e-21
9.13139e-23
7.68352e-20
8.08926e-20
8.78307e-20
5.04409e-20
-7.04725e-26
-3.15583e-25
8.50151e-27
1.46365e-26
-2.13826e-27
4.75403e-29
4.22203e-30
-3.01761e-29
1.11448e-29
1.88725e-34
-2.23106e-32
-6.80924e-33
4.48082e-38
-3.28741e-36
3.09085e-36
1.69011e-41
-5.9765e-40
-3.09621e-41
6.75762e-45
-1.44651e-43
-4.15574e-43
2.78007e-48
-4.14611e-47
-3.91538e-46
1.16584e-51
-9.10752e-51
-6.25357e-48
4.87999e-55
-2.24219e-54
-2.88253e-51
2.00063e-58
-9.01875e-58
1.55919e-55
8.41363e-62
-2.87725e-61
-2.61874e-58
3.63913e-65
-5.61231e-65
-8.69094e-62
1.65488e-68
-4.66825e-69
2.87456e-64
6.9107e-72
1.77574e-72
-1.03005e-67
3.21673e-75
-6.23456e-75
-9.86552e-71
1.72956e-78
-1.40753e-79
6.21843e-75
6.9275e-82
6.07495e-83
-1.43047e-77
3.80439e-85
-2.20444e-86
2.64657e-83
8.26893e-88
-1.07961e-88
-3.73646e-84
1.14409e-90
-1.38453e-91
-1.41033e-86
1.11706e-94
-7.97552e-95
1.16164e-95
3.45113e-97
-2.14402e-97
7.67673e-99
7.68425e-99
1.04361e-100
-5.02133e-96
5.39898e-103
2.21817e-104
-2.54689e-98
8.75265e-107
6.36573e-107
8.9762e-102
3.8096e-110
-4.15966e-111
1.84801e-105
1.4147e-113
1.50474e-114
-4.05684e-109
1.30961e-116
-4.1555e-118
-2.34336e-113
6.62162e-119
2.74989e-120
-1.98703e-115
9.70241e-123
6.45998e-123
7.99623e-118
3.20985e-126
1.56838e-128
-4.91771e-121
2.51531e-129
2.37889e-128
-4.67447e-124
2.90959e-132
-4.404e-133
3.31741e-127
5.70457e-136
6.46699e-136
-4.83216e-131
1.86722e-139
-5.99234e-139
1.42701e-135
1.64501e-142
-1.21866e-142
5.06421e-140
5.66174e-145
2.25199e-146
-9.94424e-141
2.21456e-148
4.58906e-149
-2.58036e-144
3.00744e-152
-5.66489e-154
1.99379e-149
-4.03263e-155
1.12639e-154
3.30203e-09
1.74437e-08
2.22227e-08
3.90062e-08
-1.79194e-08
2.79625e-09
1.63586e-08
-1.84885e-08
1.8879e-09
5.29746e-08
1.30732e-08
-9.36483e-09
3.59136e-08
1.49137e-08
3.16036e-08
4.81524e-09
2.59215e-08
1.86473e-08
-2.22349e-08
3.29525e-08
3.6485e-08
3.8472e-08
7.72988e-09
-1.00508e-07
-5.63383e-08
7.97339e-08
-6.53033e-08
1.26577e-09
7.20866e-09
2.3828e-10
2.63079e-09
-1.82143e-08
2.72362e-09
1.52166e-09
1.19493e-08
-6.33228e-12
3.58764e-10
-2.64547e-10
3.47143e-11
-2.21172e-11
7.20656e-14
-1.92353e-17
2.3357e-08
2.36237e-16
2.3357e-08
-1.73602e-22
-2.88933e-20
1.4766e-21
3.34995e-19
4.03378e-20
2.30514e-19
4.9524e-19
7.88516e-27
-4.94089e-24
-8.38682e-26
1.78713e-27
-8.52542e-27
7.76904e-30
6.94604e-29
-7.47554e-28
6.81543e-30
5.38533e-32
-5.15824e-30
2.41361e-32
2.70863e-36
-2.01655e-33
5.12531e-35
6.21716e-40
-2.45559e-37
-1.29104e-40
2.43414e-43
-5.89179e-41
3.24941e-42
9.92127e-47
-1.58032e-44
-2.79411e-45
4.06089e-50
-3.63783e-48
-3.10719e-47
1.64054e-53
-1.00767e-51
-1.32233e-50
6.67935e-57
-2.27436e-55
2.42187e-54
2.7271e-60
-6.97157e-59
-1.45057e-57
1.16167e-63
-2.28245e-62
-2.67772e-61
5.43076e-67
-2.94817e-67
5.74509e-63
2.27022e-70
1.23567e-69
1.22694e-66
1.00665e-73
1.09776e-73
-5.7189e-70
3.84224e-77
-7.37528e-77
-3.9857e-73
2.84853e-80
-2.21543e-81
-1.14647e-76
6.25335e-83
8.34137e-84
-2.51797e-79
8.00632e-87
-1.31604e-85
-7.20942e-83
4.98464e-90
2.74827e-91
4.32616e-86
1.64424e-92
8.27372e-94
-5.93338e-89
4.28581e-96
-3.68452e-96
4.21046e-92
8.84212e-100
-1.07929e-98
-6.80685e-95
7.66045e-103
1.2988e-103
6.05097e-100
1.85176e-105
2.13207e-107
8.63447e-102
2.32324e-109
3.64004e-110
-1.78632e-104
1.40259e-112
-4.13336e-112
-2.03653e-108
3.06013e-115
-6.94269e-115
4.91218e-111
1.0422e-117
2.80559e-118
-9.28266e-115
1.61706e-121
1.515e-121
-9.05264e-117
9.06686e-125
2.03032e-126
-1.60955e-120
1.69105e-127
-4.45135e-130
8.05746e-124
3.28959e-131
3.44885e-131
5.89942e-126
3.63032e-134
-3.44128e-133
3.19197e-129
6.21612e-137
8.48767e-138
-5.9065e-133
1.2419e-140
8.31814e-142
-1.32104e-136
3.18293e-144
2.95982e-144
-5.23964e-140
1.78117e-147
1.12399e-147
-1.38493e-142
2.03151e-150
4.36612e-151
-9.6201e-147
-1.91518e-152
-3.18251e-149
-1.42935e-08
1.25922e-08
1.2303e-07
-3.28951e-09
-1.41721e-08
-7.55927e-09
1.45937e-08
9.67017e-09
1.16012e-08
1.55984e-07
1.11717e-07
7.99006e-08
1.34644e-08
1.25301e-08
1.43796e-08
1.32744e-08
-4.00076e-09
-3.95328e-09
-1.00463e-08
5.79232e-09
6.7518e-09
-2.34649e-08
-1.1243e-08
-5.50802e-08
-7.26911e-08
-3.91163e-08
-6.82529e-08
6.05292e-08
1.90475e-08
-1.94727e-08
-1.31028e-08
3.48032e-08
1.25757e-08
-9.1371e-08
-2.61512e-08
-9.71466e-08
1.52698e-08
8.51721e-09
1.03766e-08
1.21229e-08
3.36407e-07
-6.20968e-07
7.28002e-07
-5.63797e-08
-7.67045e-10
-2.41227e-08
4.37132e-09
-4.16399e-09
2.30104e-08
-2.98854e-09
3.89889e-10
-1.16877e-09
-1.5914e-10
3.39023e-10
-2.52783e-10
9.78286e-10
5.11442e-10
2.58479e-10
2.65998e-10
2.84258e-10
1.79151e-10
3.33636e-10
1.98651e-10
-3.16246e-11
1.36607e-13
3.09094e-08
3.17582e-12
3.09097e-08
5.53877e-23
-1.33417e-20
-1.51773e-20
5.93627e-18
6.17625e-18
7.06827e-18
4.37798e-18
1.0805e-25
-3.67374e-24
-7.16905e-25
7.5801e-27
-9.84054e-28
2.27369e-29
5.51812e-28
-6.30595e-28
1.42513e-29
9.48785e-31
-4.72919e-30
-1.22767e-31
6.42878e-35
-1.61369e-33
-7.86443e-34
1.08038e-38
-2.04942e-37
-7.65017e-37
4.13624e-42
-5.25923e-41
6.09859e-40
1.67892e-45
-1.39301e-44
-2.99715e-43
6.85336e-49
-3.66384e-48
1.04412e-46
2.81155e-52
-9.62533e-52
-1.47313e-49
1.15389e-55
-2.17737e-55
-4.23202e-52
4.82526e-59
-7.21016e-59
-2.05792e-56
2.1064e-62
-1.7799e-62
-2.423e-58
8.14841e-66
-5.97192e-66
-1.00291e-61
3.40149e-69
-1.78748e-69
6.89976e-65
1.59655e-72
-6.60672e-73
-1.44385e-68
8.94396e-76
-2.39508e-76
5.34286e-71
3.48847e-79
-7.06263e-80
-3.95026e-75
3.91484e-82
1.81618e-83
3.68477e-78
7.33695e-85
9.87165e-86
-6.86404e-81
2.17686e-88
-1.90038e-87
-2.66374e-83
1.3874e-91
1.11208e-92
-1.94788e-87
7.41532e-95
-1.48522e-95
-2.12829e-90
1.04844e-97
2.96668e-99
-3.45949e-93
1.36236e-101
-4.02793e-102
6.18232e-98
5.02028e-105
-1.29201e-104
-9.70302e-101
7.82791e-108
-3.0413e-109
1.36653e-103
2.67217e-110
-1.47353e-111
-1.88771e-105
3.79969e-114
-8.43897e-115
-1.63126e-108
1.50818e-117
2.62676e-118
2.25198e-118
1.67295e-120
1.70634e-121
1.25451e-115
2.66386e-124
1.16179e-123
6.72847e-120
4.54012e-127
-1.15171e-125
-6.76342e-123
3.05515e-129
-1.83359e-129
-5.74199e-125
1.03553e-132
-5.00522e-133
-3.59061e-128
2.06978e-136
-1.09386e-136
5.1386e-131
3.65611e-139
-3.18683e-140
1.17522e-135
2.36945e-141
1.92135e-142
-3.80961e-138
3.02716e-145
1.78574e-145
-2.41e-141
2.04341e-148
6.75437e-149
-1.59483e-144
4.06035e-153
-3.05462e-147
2.33746e-11
1.87724e-08
3.59108e-08
1.34425e-08
1.65081e-08
2.51127e-08
2.69147e-08
1.73271e-08
2.28319e-08
3.97118e-09
1.45951e-08
2.42164e-10
2.0773e-08
-4.55302e-08
-5.36847e-08
1.35272e-07
3.28104e-08
3.41263e-08
4.47777e-08
3.46916e-08
-2.30403e-08
-2.48433e-08
-3.06493e-08
-3.31663e-08
2.83899e-08
-9.13387e-09
3.57776e-08
8.78765e-09
1.03511e-08
3.55313e-09
1.66433e-08
3.92803e-09
1.60164e-09
-2.50485e-08
-1.0791e-09
1.17502e-09
-1.21107e-09
-1.06769e-11
-1.52818e-10
-1.2722e-09
7.50785e-10
1.07992e-10
8.58876e-11
1.52247e-10
1.32426e-10
-9.56862e-11
4.31869e-16
6.27768e-08
8.67695e-12
6.27763e-08
-2.68191e-23
-5.37572e-21
-1.79098e-20
5.98861e-18
5.28968e-18
8.2399e-18
3.3738e-18
3.08681e-26
-8.12053e-25
-8.28315e-25
9.72939e-27
3.96813e-28
1.97025e-31
4.09494e-28
-2.88969e-28
-8.0156e-29
7.97745e-31
-2.17397e-30
-1.48044e-29
5.57595e-35
-7.52267e-34
1.17286e-33
9.33192e-39
-9.60472e-38
-1.05166e-36
3.58871e-42
-2.46321e-41
1.01418e-39
1.4868e-45
-6.77676e-45
1.06115e-43
6.23053e-49
-3.1609e-48
-3.28759e-46
2.61234e-52
-5.77984e-52
4.39494e-49
1.1412e-55
-8.97588e-56
-1.49345e-52
4.47336e-59
2.79808e-59
-9.88954e-55
1.83156e-62
-4.48306e-63
-4.49249e-58
7.97513e-66
-5.83371e-67
-5.37951e-62
3.78794e-69
-6.29306e-70
-7.59219e-65
4.82759e-72
-2.00958e-73
1.31721e-68
2.93199e-74
2.19082e-75
-2.19323e-70
1.55462e-78
-3.02818e-81
-6.17433e-75
7.69394e-82
9.69686e-84
-1.03932e-77
2.15212e-84
6.91779e-86
-1.08946e-80
4.18138e-87
1.36512e-87
-3.93289e-83
1.3611e-90
9.46166e-91
-2.27495e-86
3.14654e-94
2.61332e-96
-7.00113e-90
1.12316e-97
6.84118e-99
-3.66016e-94
6.67992e-101
6.9676e-102
-1.31964e-95
4.16913e-104
1.28298e-104
-2.74744e-99
1.59705e-107
-3.43384e-108
1.01343e-102
1.65392e-110
-1.64717e-111
-4.52942e-105
9.0964e-114
2.16401e-115
-1.79865e-108
3.18007e-117
-2.92291e-119
2.90182e-113
6.37909e-120
-1.71818e-121
-5.08488e-116
1.35793e-122
-3.39531e-124
4.00765e-119
3.35049e-125
2.14159e-126
-1.8913e-121
3.41698e-129
-2.6505e-132
-1.2232e-124
1.07194e-132
-4.04429e-133
3.32058e-128
5.58662e-136
-1.60727e-138
2.81873e-131
3.8579e-139
-2.72073e-142
-3.63039e-135
7.90473e-143
6.5376e-144
6.33417e-144
2.87803e-146
1.75862e-148
5.74564e-142
1.08902e-149
5.07679e-151
-9.22039e-146
6.59581e-154
1.6226e-153
-3.10908e-08
9.0809e-09
1.92219e-08
4.34347e-08
4.82513e-08
1.11897e-07
2.81851e-08
2.81572e-08
1.00736e-07
6.54976e-10
1.53787e-08
2.04382e-08
2.03379e-08
2.41481e-08
-2.17257e-08
-4.29695e-08
-3.67151e-08
2.29736e-08
2.83962e-08
3.6734e-08
1.30449e-08
4.49681e-08
5.64168e-08
-5.35342e-08
1.01917e-09
1.75688e-08
-1.84811e-09
-3.16852e-09
-1.58375e-08
-7.32786e-10
-4.74217e-10
7.45193e-10
-1.91479e-10
3.07192e-10
-1.17493e-11
-2.4786e-13
2.21645e-08
-2.01032e-13
2.21645e-08
-2.78694e-22
4.56596e-21
-4.51307e-21
3.49404e-19
-1.80186e-20
1.26926e-19
5.64158e-19
4.27572e-28
4.78171e-25
-9.23045e-26
3.19266e-27
8.07679e-28
-9.80707e-30
6.90674e-29
4.45505e-30
-1.6917e-30
5.15839e-32
-5.71522e-33
-1.0509e-32
2.5978e-36
-5.10221e-37
-2.81635e-35
6.49205e-40
-6.72026e-41
-9.43423e-39
2.60232e-43
-2.44617e-44
1.37981e-42
1.06903e-46
-6.49217e-48
3.359e-46
4.39479e-50
-2.20487e-51
-1.13641e-47
1.80457e-53
-1.87049e-54
1.00715e-51
7.59638e-57
-3.62483e-59
-4.17952e-54
3.28352e-60
-2.60307e-62
-8.95415e-58
1.27539e-63
-6.94706e-66
8.49316e-61
5.30744e-67
3.09389e-69
-1.73033e-64
2.3933e-70
-2.73301e-72
-5.63396e-68
1.21136e-73
6.07714e-75
-5.6191e-70
3.8832e-77
-5.92269e-79
2.46643e-77
1.76556e-80
-6.12376e-82
-2.74149e-76
2.16265e-83
-5.6795e-85
-1.03877e-79
4.63129e-86
1.77681e-87
-4.61673e-82
4.59819e-90
-2.70179e-92
6.48546e-86
1.79728e-93
-1.05814e-94
-5.56136e-92
1.14916e-96
-2.27198e-98
1.59087e-92
3.45121e-100
1.24193e-101
4.94931e-101
2.80065e-103
-3.22767e-105
-4.29781e-99
1.78017e-106
-3.32247e-108
-2.20535e-102
1.7783e-109
1.21568e-110
1.60061e-104
1.23224e-112
-2.62858e-115
-7.13749e-109
4.28219e-115
-3.3581e-117
8.56802e-111
1.10752e-118
6.15912e-121
-3.99043e-115
2.75754e-122
-2.01661e-122
-1.63992e-117
2.10686e-125
-1.02296e-126
-1.04733e-120
3.31566e-128
3.35959e-130
-9.06982e-124
7.22937e-132
6.72354e-133
7.30896e-128
5.78455e-135
7.21091e-137
4.70855e-130
5.58033e-138
-1.43395e-140
-2.50945e-133
6.18346e-141
5.05386e-145
-1.21684e-136
4.40853e-143
8.21908e-146
-8.53807e-140
2.02308e-147
-1.12553e-149
3.43216e-148
2.49987e-150
-2.53953e-154
5.97775e-151
1.05048e-153
1.92902e-150
-8.03271e-09
2.78389e-08
1.25546e-08
2.807e-08
-1.27709e-08
1.81443e-08
1.62734e-08
1.95429e-08
3.40742e-08
-1.35426e-08
-8.67058e-09
-1.28338e-08
3.85524e-08
1.5418e-08
1.24949e-07
4.65306e-08
7.88785e-09
9.64626e-09
-5.06574e-07
1.17621e-08
-3.01004e-07
3.26837e-08
-4.70035e-08
-2.89171e-08
6.15664e-09
6.13064e-08
6.2384e-08
6.79868e-08
6.05609e-08
4.93188e-08
5.19624e-08
-1.6375e-07
-3.09512e-08
-3.95886e-08
2.50857e-08
-1.15554e-07
1.55277e-09
-2.37862e-09
5.40759e-09
3.32043e-09
-2.72408e-09
-4.35325e-08
-3.94504e-08
-4.89671e-08
4.60404e-09
2.72744e-08
-1.27253e-09
-4.1177e-09
-2.54688e-08
3.87227e-10
-2.69292e-10
1.34739e-09
9.63387e-11
1.24279e-09
3.98614e-15
1.18774e-16
4.58199e-09
4.58199e-09
2.17395e-16
2.95418e-15
2.03384e-15
-4.83602e-15
-2.13492e-15
4.77481e-16
4.6908e-16
-4.31659e-23
-1.86736e-22
-1.8891e-22
-4.90463e-21
-4.37464e-22
3.9955e-20
-2.0144e-20
3.12601e-26
3.53841e-26
-6.37837e-27
1.17528e-26
2.07397e-27
8.00369e-30
8.06604e-30
5.65003e-30
-1.8896e-30
2.64978e-34
1.89552e-33
-3.77267e-33
6.70009e-38
4.81208e-37
1.31168e-36
2.64213e-41
6.73289e-41
2.27745e-39
1.07973e-44
1.73639e-44
-9.70411e-43
4.46396e-48
5.03578e-48
1.28773e-45
1.85708e-51
1.34563e-51
1.82586e-48
7.88671e-55
3.75012e-55
2.25259e-51
3.31225e-58
6.54574e-59
-4.12087e-55
1.37383e-61
2.64062e-62
-1.88591e-58
6.1401e-65
6.09828e-66
-3.81637e-61
2.54234e-68
5.57027e-70
-5.23177e-64
9.81618e-72
3.68084e-74
-3.18168e-68
6.04397e-75
-2.83609e-77
-7.71755e-72
8.16808e-78
2.87584e-79
-7.58859e-74
2.79817e-81
1.74025e-82
-2.70452e-77
7.6199e-85
6.9585e-87
7.39572e-81
7.27404e-88
5.18318e-90
1.42782e-87
2.801e-90
-2.3118e-93
-1.75103e-86
2.51468e-94
-1.26788e-98
4.07126e-91
3.18087e-97
3.67123e-100
-4.43868e-93
1.95215e-100
6.43044e-101
-4.33783e-96
4.78522e-104
-5.58943e-105
6.01291e-99
4.2496e-107
-9.18531e-110
-3.46022e-103
5.91364e-110
3.30404e-111
-2.42756e-105
1.39118e-113
-7.17496e-116
-3.83651e-110
2.62285e-116
-7.16361e-119
1.80116e-111
2.83408e-119
1.24399e-121
-2.42486e-115
6.49048e-122
2.36047e-123
-8.62857e-118
5.09134e-126
1.95219e-128
-1.67402e-122
2.98295e-129
-7.89507e-131
2.45657e-125
1.90969e-132
1.21323e-133
1.01998e-127
9.07791e-136
-6.57845e-137
-3.14235e-132
2.6174e-139
4.22251e-142
-2.0699e-134
8.82905e-143
2.29686e-144
-1.0767e-138
3.36612e-146
-3.08419e-148
3.119e-147
1.29553e-149
-2.55479e-150
7.30427e-150
3.33428e-153
-2.64531e-153
6.99811e-153
-1.8145e-158
-4.41862e-151
3.17775e-08
1.86832e-08
1.41081e-08
2.07505e-08
-1.79256e-08
1.37768e-07
2.47765e-07
1.32248e-08
-2.68018e-08
-3.72167e-08
-5.23333e-08
3.75336e-08
-6.93645e-09
3.18307e-08
1.71569e-07
1.17883e-08
-6.06548e-08
3.24733e-08
4.29515e-09
-3.40364e-09
7.64517e-09
8.4514e-08
1.01154e-09
1.65924e-08
1.16148e-07
4.75586e-08
7.5955e-08
1.02279e-07
9.05744e-09
-2.75625e-08
3.64024e-08
1.81896e-08
6.02391e-08
1.52647e-08
2.75251e-08
2.70677e-08
4.85612e-09
-5.13106e-09
3.01283e-09
-4.34928e-09
-3.08872e-10
6.34611e-09
-3.22408e-10
3.46421e-10
-2.48792e-08
1.2753e-10
-2.46505e-08
2.52867e-16
-1.44837e-18
3.22594e-08
3.22594e-08
-9.42168e-19
2.5327e-16
2.5514e-16
2.53225e-16
3.55642e-24
-2.68335e-22
2.17866e-23
9.75824e-22
9.03715e-22
7.93964e-22
-2.17139e-21
9.6597e-27
3.51712e-27
-2.56516e-26
-5.32951e-29
-2.16186e-28
1.86866e-31
2.50409e-31
-2.68375e-31
1.1471e-33
2.43544e-34
2.43207e-33
-7.19932e-36
1.63181e-38
4.97803e-37
6.78786e-40
4.37578e-42
7.22216e-41
-3.23029e-42
1.76366e-45
1.58946e-44
8.58281e-45
7.26804e-49
4.79878e-48
5.78772e-48
2.98848e-52
1.33362e-51
1.77486e-51
1.22623e-55
2.92423e-55
1.20096e-53
5.0163e-59
1.14877e-58
4.10988e-58
2.04828e-62
2.62793e-62
-2.439e-61
8.35393e-66
1.5388e-65
-4.75565e-64
3.40115e-69
3.14293e-69
-5.14527e-67
1.40449e-72
4.83261e-73
-8.08859e-71
5.83425e-76
1.44477e-76
-3.72301e-73
2.31663e-79
2.3327e-80
-7.35885e-78
9.37967e-83
-9.10454e-83
7.31235e-80
3.82783e-86
-8.31384e-87
-6.99607e-83
1.57078e-89
-2.58293e-89
1.08754e-85
9.85584e-93
-4.44929e-93
-7.93867e-91
1.26045e-95
2.07215e-96
-7.97177e-93
2.01595e-99
-5.99152e-99
-7.68932e-97
7.19209e-103
-7.92524e-102
-1.878e-98
5.66782e-106
-3.92567e-106
-1.07908e-103
1.39485e-108
4.08555e-110
-8.70052e-105
1.85853e-112
-1.20725e-111
-7.21952e-108
7.46766e-116
2.68373e-115
1.262e-113
2.29992e-119
-1.3007e-119
1.44956e-114
1.82259e-122
-2.55694e-121
4.68508e-123
5.39378e-125
-3.45263e-126
-2.50887e-121
7.10616e-128
-7.68358e-129
-2.40281e-124
9.64037e-131
1.04707e-131
-1.26215e-127
1.26916e-134
2.00129e-134
3.20602e-130
5.45983e-138
-3.63368e-138
3.89782e-134
5.41043e-141
-6.44692e-142
-2.03232e-136
2.70543e-144
-2.51643e-144
-5.785e-140
7.26771e-147
4.31488e-148
-1.49438e-143
7.03874e-150
-7.60596e-150
-2.68492e-146
7.37204e-153
-1.52679e-153
-3.98504e-149
-8.02478e-157
4.13362e-155
2.51148e-08
3.50893e-08
3.98793e-08
-3.76693e-09
2.61206e-08
9.67532e-09
1.17036e-08
2.40106e-08
3.07921e-08
3.0002e-08
6.42641e-08
2.28129e-08
3.82044e-08
4.00957e-08
2.332e-08
6.3292e-08
6.63838e-08
6.59844e-08
1.87635e-08
5.66264e-08
4.298e-08
4.62671e-08
1.82119e-08
3.20763e-08
6.6206e-08
7.12811e-08
3.20588e-08
3.09668e-08
9.7078e-09
2.40066e-08
2.58699e-08
3.49288e-08
1.62116e-08
1.51203e-08
1.82921e-08
1.86433e-08
-1.04172e-08
1.06818e-08
-3.35567e-08
-9.68204e-08
-8.92403e-08
2.71827e-10
3.98288e-09
5.8735e-09
1.71692e-09
-1.39407e-08
-8.85199e-11
-1.40479e-11
1.79799e-08
6.89143e-12
1.7973e-08
2.62821e-22
-6.93969e-20
-5.74395e-19
-4.50542e-20
2.38009e-18
-1.47623e-18
-1.91083e-18
-1.71661e-18
-3.45781e-18
-1.72148e-18
1.14704e-27
-1.73053e-24
5.17146e-27
-1.81622e-28
2.78543e-29
-4.51392e-30
1.40528e-30
-9.15531e-32
2.49782e-34
-1.83417e-34
2.57504e-38
2.9627e-38
8.64023e-42
-8.96806e-41
3.52354e-45
-5.46159e-44
1.45096e-48
3.43712e-48
5.9787e-52
5.22503e-50
2.47173e-55
3.25953e-53
1.02127e-58
-2.46604e-56
4.16797e-62
4.67022e-60
1.7097e-65
2.07813e-62
6.99567e-69
-2.86853e-66
2.87397e-72
4.10242e-70
1.18929e-75
-3.15162e-72
5.42562e-79
7.72182e-75
2.75244e-82
-3.26803e-78
1.44808e-85
-3.60617e-82
1.80042e-88
-3.3896e-85
6.68366e-92
8.39787e-88
6.92031e-95
1.65254e-91
3.63283e-98
-1.29764e-94
2.08306e-101
-3.44078e-97
9.79568e-105
-9.17198e-101
2.87144e-108
-1.30651e-104
2.38783e-111
-2.69473e-106
2.24584e-114
-8.6741e-111
2.16993e-117
1.88306e-113
1.02017e-119
-2.58433e-116
6.47166e-124
-3.83088e-121
1.72141e-127
-1.82292e-125
2.37346e-130
1.14907e-126
1.42416e-132
1.21696e-128
1.24182e-136
5.18808e-132
8.23184e-140
2.62408e-135
9.42883e-143
-1.45927e-138
2.61252e-146
6.31932e-142
2.70979e-149
-7.22429e-146
4.37454e-153
2.45764e-149
1.29455e-151
3.02374e-09
1.82961e-09
-2.38231e-07
7.97287e-08
4.73023e-08
6.33921e-08
5.31267e-08
4.45867e-09
-2.94216e-09
5.11317e-09
5.71055e-09
1.5203e-09
4.90178e-09
5.50454e-08
2.39624e-08
1.90513e-10
2.59069e-08
-7.07882e-08
4.41875e-09
2.64881e-08
1.22863e-07
1.05926e-08
-2.42774e-08
9.08835e-08
1.57366e-07
-5.19794e-08
2.29236e-07
3.85735e-08
3.28002e-07
-3.22074e-08
-2.24215e-08
-1.63477e-08
2.22411e-08
2.33468e-08
1.75487e-08
2.0406e-08
-4.77327e-07
1.20713e-08
2.04844e-08
1.15815e-08
1.6005e-07
-2.65623e-08
3.14663e-09
-2.54445e-09
4.24174e-09
2.01696e-08
-1.28401e-10
-3.78918e-12
-6.32943e-12
4.82308e-08
4.82265e-08
-3.26205e-22
5.18776e-18
-4.05257e-22
-4.15085e-18
2.95595e-18
-4.94886e-18
2.74515e-18
5.12756e-18
5.18624e-18
5.12758e-18
5.65227e-25
7.20856e-22
-2.47923e-26
1.14152e-26
7.87866e-25
-6.35272e-29
2.49122e-27
7.05717e-28
-1.63887e-30
2.88416e-29
1.3045e-29
-6.53279e-32
3.60327e-32
9.26042e-33
7.64936e-34
5.73043e-36
-6.57713e-36
-8.98994e-37
1.96464e-39
-1.2004e-39
5.62305e-41
1.41048e-42
9.63059e-44
3.08367e-43
1.03619e-45
-2.54579e-46
-4.00381e-49
7.33166e-49
-3.75536e-49
5.04936e-50
5.15349e-52
7.01951e-52
-9.64117e-53
3.62668e-55
-6.11718e-56
-1.14524e-55
2.55336e-58
8.94049e-59
-9.4225e-59
1.79398e-61
5.03707e-62
2.57375e-62
1.2592e-64
2.77858e-65
2.17779e-65
8.82955e-68
-3.16534e-70
3.48449e-69
6.18279e-71
-4.32917e-72
7.03209e-72
4.32551e-74
-3.7818e-75
-4.1458e-75
3.02356e-77
1.88425e-78
4.40601e-78
2.10998e-80
1.65451e-81
1.22582e-82
1.4698e-83
-4.39965e-86
1.34817e-84
1.02295e-86
-6.65598e-89
-2.98617e-87
7.10171e-90
6.40289e-90
-6.43238e-91
4.92516e-93
2.62787e-93
3.83275e-95
3.41304e-96
1.78044e-96
-7.67767e-97
2.36299e-99
1.23912e-99
-1.22777e-99
1.63388e-102
2.45988e-103
-1.75594e-103
1.12657e-105
-1.24098e-107
-2.15089e-106
7.74553e-109
9.92741e-110
4.22117e-109
5.3217e-112
-1.20214e-113
4.70341e-113
3.6538e-115
1.01942e-115
-2.44273e-121
2.50442e-118
-3.09463e-120
2.4691e-119
1.71406e-121
1.08592e-122
1.53692e-122
1.17076e-124
-6.9871e-126
9.85415e-127
7.98039e-128
-2.7107e-128
1.36608e-127
5.4282e-131
1.36286e-131
8.00608e-133
3.68584e-134
-2.35539e-136
5.35545e-135
2.49736e-137
6.1702e-138
1.30661e-137
1.69098e-140
-1.29933e-142
1.42456e-143
1.14239e-143
-6.47844e-146
4.4788e-145
7.31775e-147
-9.35425e-150
3.07654e-148
8.19952e-151
5.87457e-151
-3.72184e-07
-3.82536e-07
-2.14109e-08
-4.25387e-07
1.84994e-08
-5.6753e-08
-1.18453e-07
-1.96119e-08
-9.7685e-09
-7.63002e-09
-2.0147e-09
-2.22553e-09
1.34306e-08
-2.43443e-10
3.1521e-09
4.48647e-09
7.47565e-08
-1.90473e-07
4.80762e-10
-4.15508e-07
-4.32635e-07
-5.75786e-08
-3.57333e-07
-3.90484e-09
-2.5089e-09
-3.4575e-08
7.12556e-09
6.90858e-09
-1.14279e-08
-1.00032e-07
2.84679e-08
9.2625e-08
4.75729e-09
3.04357e-08
-2.70338e-09
4.3558e-09
-1.28491e-07
8.09347e-11
-2.42672e-11
5.18166e-12
-1.47794e-11
6.64328e-12
-6.50239e-12
7.97525e-18
4.98693e-18
1.74432e-18
5.13803e-18
1.73698e-18
8.99101e-23
-7.55897e-22
-8.38283e-24
-1.7061e-20
-1.84121e-20
-1.72515e-20
-1.84045e-20
2.3275e-25
-8.99249e-25
-1.31885e-26
2.04691e-28
8.99859e-26
-1.6895e-30
2.12889e-30
1.62202e-27
-2.55174e-32
2.04406e-33
3.06734e-31
-1.4863e-34
3.12502e-37
1.82691e-35
-2.74522e-38
1.39838e-40
1.07307e-38
-1.17332e-41
1.04856e-43
5.64344e-42
-3.23836e-44
7.60429e-47
1.79918e-45
4.55093e-48
5.35564e-50
3.9617e-49
2.41019e-50
3.76981e-53
-7.49957e-52
3.1727e-53
2.6526e-56
2.05013e-55
1.58445e-57
1.8653e-59
1.66643e-59
-2.46923e-60
1.30904e-62
-9.42258e-63
1.90906e-63
9.19514e-66
-6.94969e-65
6.27875e-66
6.4463e-69
6.72653e-68
-1.93646e-69
4.50921e-72
2.52018e-72
7.63856e-73
3.15149e-75
7.99428e-75
-3.14164e-76
2.2005e-78
-2.30316e-78
-1.95028e-79
1.53336e-81
-7.78757e-82
1.31719e-82
1.06618e-84
1.11124e-85
-3.66795e-86
7.40621e-88
3.13481e-87
-4.48896e-88
5.14666e-91
9.19911e-92
1.15182e-91
3.57016e-94
1.02065e-94
6.11027e-95
2.47239e-97
-4.67871e-97
8.69713e-98
1.70935e-100
-4.6561e-100
-4.80757e-101
1.17918e-103
5.11708e-104
-8.42189e-105
8.12363e-107
2.14774e-106
-3.26419e-107
5.58835e-110
-1.7376e-110
7.84941e-111
3.83704e-113
-1.25321e-113
6.61402e-115
2.62942e-116
-2.33252e-116
5.52998e-117
1.7983e-119
2.1256e-120
4.27545e-124
1.22922e-122
-6.15575e-122
5.06615e-123
8.377e-126
-2.37157e-125
5.37143e-126
5.70501e-129
-1.26897e-128
1.60818e-129
3.88368e-132
-1.44362e-132
2.07988e-133
2.63434e-135
3.8957e-136
-5.82395e-136
1.78417e-138
1.10199e-139
3.92849e-139
1.20659e-141
-1.00613e-141
2.87445e-142
8.14027e-145
5.02828e-146
1.86086e-147
5.21831e-148
6.16505e-149
5.29955e-151
3.04977e-151
4.32407e-160
-2.90412e-07
6.52297e-09
-2.7655e-07
6.66954e-09
8.37126e-09
1.69773e-08
1.50297e-08
5.74015e-09
-3.0563e-07
-3.3427e-07
-2.31728e-07
2.10472e-07
2.33472e-08
6.27737e-09
2.1824e-08
-9.57828e-09
1.98117e-09
8.84907e-09
2.89828e-08
6.24744e-08
5.738e-07
2.6093e-08
5.84203e-07
5.76259e-07
5.76432e-07
5.8081e-07
-3.49642e-08
-2.28275e-07
-3.31688e-08
-4.11628e-07
-4.53903e-07
-2.30056e-07
-2.80758e-07
-1.02568e-08
-1.57085e-08
-2.44451e-08
-2.25299e-08
2.37576e-07
4.85417e-08
-7.47388e-10
-1.49999e-08
4.23687e-09
5.60784e-09
-4.22473e-08
3.73973e-10
-2.60101e-10
1.84852e-11
-1.7079e-10
2.6058e-10
1.25913e-11
1.30251e-17
-7.90872e-18
-1.89355e-17
-3.29815e-18
7.00385e-18
1.99325e-17
2.33195e-17
1.7093e-16
-1.56363e-17
2.9533e-23
-8.93405e-21
2.57517e-23
-2.54953e-20
-6.45949e-20
-2.81648e-20
-6.07478e-20
-1.49957e-26
-2.22392e-24
-6.24169e-27
5.2738e-25
-3.63181e-26
-2.83879e-29
1.6851e-27
-1.38266e-27
-9.13648e-30
2.77635e-31
-4.3848e-30
8.00074e-33
3.81035e-35
-1.09697e-33
-3.3903e-36
2.32566e-38
-3.33246e-37
-6.63284e-40
1.68236e-41
-1.48708e-40
-1.39916e-43
1.16681e-44
-5.49559e-44
7.07419e-46
8.00696e-48
-2.34345e-47
4.44278e-48
5.48955e-51
-6.65577e-51
2.06883e-51
3.76801e-54
-4.17558e-54
-5.53551e-58
2.58529e-57
-1.97582e-57
-3.31671e-58
1.77206e-60
-4.42246e-61
1.3622e-61
1.21284e-63
-8.78881e-64
-3.06872e-64
8.28436e-67
-5.31022e-68
6.81483e-68
5.6578e-70
-7.20468e-70
3.33763e-70
3.86403e-73
-4.71525e-74
-6.61289e-76
2.63368e-76
6.749e-77
7.49815e-77
1.79195e-79
1.22352e-79
-4.73057e-83
1.22051e-82
2.81381e-83
-3.65431e-84
8.30423e-86
6.85449e-87
3.81273e-87
5.64229e-89
7.63829e-90
8.6888e-96
3.83507e-92
1.52719e-93
-3.69249e-99
2.6001e-95
7.61267e-96
9.01727e-97
1.75797e-98
2.05523e-99
1.23105e-100
1.18917e-101
2.88983e-103
-2.99648e-102
8.03627e-105
1.63187e-106
-1.43581e-105
5.42091e-108
3.57104e-110
5.19769e-110
3.65461e-111
-1.05822e-111
-3.06322e-113
2.45969e-114
3.99598e-115
6.91047e-116
1.65118e-117
1.35766e-117
-3.89737e-118
1.10788e-120
5.90832e-122
1.73064e-121
7.43108e-124
1.45045e-124
8.9856e-125
4.98012e-127
-2.88473e-127
3.18972e-127
3.33552e-130
-6.82369e-130
7.34998e-131
2.22878e-133
1.87692e-133
-4.18277e-135
1.48666e-136
5.60292e-137
-5.92681e-140
9.90111e-140
1.53599e-140
7.45589e-141
6.58151e-143
1.18687e-143
1.33882e-144
4.2016e-146
1.36015e-147
7.32943e-148
-9.12829e-150
1.66002e-150
1.74797e-09
-2.86381e-07
-2.86868e-07
5.86049e-08
-3.61394e-07
-7.48733e-08
-1.27271e-08
-2.82709e-08
-2.14785e-07
-1.34663e-08
-1.22079e-08
-1.54625e-08
-1.0178e-08
-2.37598e-08