/*--------------------------------*- C++ -*----------------------------------*\
| =========                 |                                                 |
| \\      /  F ield         | OpenFOAM: The Open Source CFD Toolbox           |
|  \\    /   O peration     | Version:  5.0                                   |
|   \\  /    A nd           | Web:      www.OpenFOAM.org                      |
|    \\/     M anipulation  |                                                 |
\*---------------------------------------------------------------------------*/
FoamFile
{
    version     2.0;
    format      ascii;
    class       volScalarField;
    location    "3.5";
    object      alpha.water;
}
// * * * * * * * * * * * * * * * * * * * * * * * * * * * * * * * * * * * * * //

dimensions      [0 0 0 0 0 0 0];

internalField   nonuniform List<scalar> 
9046
(
1.06728
1.01036
1.00609
0.879198
0.998472
1.01626
0.052266
-1.41603e-18
1.16517e-20
9.32266e-18
1.67625e-18
3.36812e-20
4.26229e-23
3.54398e-27
5.63124e-31
2.24348e-34
9.30502e-38
4.06816e-41
1.75885e-44
7.09754e-48
3.37463e-51
1.46437e-54
6.53124e-58
2.39677e-61
1.55647e-64
1.73779e-67
3.55798e-71
1.00022e-74
5.79571e-77
7.58314e-81
1.62887e-83
1.79326e-87
2.04997e-90
8.45786e-93
3.05444e-96
1.63094e-99
9.2626e-103
3.33311e-105
5.51192e-109
4.39595e-113
7.77448e-116
1.64014e-118
2.08651e-121
5.63703e-124
9.98029e-128
9.58088e-131
1.20815e-134
1.79892e-138
5.34187e-140
2.84751e-143
1.03861
1.02276
1.01917
1.03039
1.04617
1.01425
0.293583
-2.39799e-17
3.06326e-15
3.33853e-17
1.23539e-19
5.79961e-21
2.17469e-23
2.85651e-27
2.17305e-31
7.74553e-35
3.22888e-38
1.36449e-41
5.76729e-45
2.35595e-48
9.90701e-52
4.17393e-55
1.89457e-58
8.77785e-62
3.30838e-65
1.67401e-68
1.11241e-71
2.69079e-75
2.03138e-78
7.32509e-82
3.6883e-85
7.72049e-88
1.01848e-91
4.52751e-94
1.10093e-97
1.3731e-100
3.79764e-104
3.41667e-108
1.38996e-109
1.05268e-112
1.44311e-116
2.1758e-119
2.47961e-123
3.79353e-127
7.12326e-130
5.36667e-133
9.46357e-137
2.54529e-140
8.73939e-144
1.41064e-144
1.04459
1.00336
1.15528
0.98532
1.11523
1.00294
1
-1.09499e-15
-1.87182e-18
2.45345e-20
1.93446e-17
2.45888e-19
1.13416e-22
1.24122e-26
3.18502e-30
1.13389e-33
4.79622e-37
2.11853e-40
1.00158e-43
3.92021e-47
1.78568e-50
7.60242e-54
4.36101e-57
1.76533e-60
7.24588e-64
5.2221e-67
2.44971e-70
4.76204e-74
1.25324e-76
3.19931e-79
3.21094e-83
3.8848e-87
2.2654e-88
2.22742e-91
1.98797e-95
9.70497e-99
3.01641e-102
3.73944e-106
6.11695e-108
4.49564e-111
1.01071e-114
3.42366e-118
1.00914e-120
2.07019e-124
4.22963e-128
6.15975e-132
7.41176e-134
9.46572e-137
5.07843e-141
8.002e-145
0.991856
1.00285
1.04336
1.09662
1.01093
1.00076
1.00006
-7.15722e-17
-3.85689e-19
-6.31593e-22
4.47841e-18
5.15288e-19
4.33898e-21
1.50752e-24
8.23798e-29
2.35386e-32
9.71599e-36
4.44554e-39
1.74673e-42
7.23066e-46
3.2418e-49
1.28341e-52
9.9907e-56
3.99363e-59
2.26326e-62
7.08585e-66
1.94233e-69
1.08567e-71
3.34607e-75
2.53933e-79
2.07361e-81
1.88854e-84
2.1875e-88
5.86296e-92
3.40033e-94
6.9545e-98
3.76853e-101
3.58459e-104
1.68154e-106
8.23225e-110
1.07226e-113
3.81932e-116
1.27248e-119
7.89913e-123
1.59306e-125
6.66219e-129
3.55616e-133
3.05439e-136
2.88046e-139
8.87771e-142
1.02555
1.0351
0.946963
1.03267
0.994077
1.0065
1.00158
0.0369752
-4.10774e-18
-9.60645e-21
2.20204e-17
3.33596e-18
4.61456e-20
3.151e-23
1.80678e-27
4.17588e-31
1.62644e-34
6.89204e-38
2.89349e-41
1.34693e-44
5.10024e-48
3.40149e-51
9.65547e-55
4.879e-58
2.02633e-61
2.40587e-64
6.74175e-68
5.62941e-71
1.69969e-73
6.90571e-77
5.74691e-80
1.02256e-83
2.84893e-86
3.59335e-90
3.9823e-94
5.06942e-97
3.65397e-99
1.59157e-102
7.60006e-107
4.1638e-109
6.15204e-113
8.37721e-117
2.52229e-118
3.49602e-121
9.9768e-125
1.85019e-128
2.23522e-130
1.0509e-133
8.98236e-137
1.18708e-140
1.07387
1.15445
1.01751
1.00383
1
0.997823
1.00158
0.101138
-4.68639e-18
-2.57913e-21
1.72317e-17
2.62577e-18
3.69256e-20
2.62083e-23
1.50944e-27
3.30266e-31
1.33925e-34
7.04499e-38
2.67374e-41
1.74529e-44
5.21684e-48
2.16176e-51
8.2138e-55
7.54906e-58
1.8424e-61
2.57527e-63
6.99901e-67
6.35141e-71
2.52264e-73
7.86949e-76
5.99018e-79
1.07709e-82
1.44968e-86
8.54405e-90
1.27401e-92
1.98125e-96
3.09214e-99
3.33397e-102
1.86259e-106
9.55868e-109
1.79332e-111
6.34e-114
1.55898e-117
2.42306e-121
8.64693e-125
1.28741e-127
1.06997e-131
2.27383e-135
8.17007e-139
2.08902e-142
1.05446
1.02506
0.951465
1.09008
1.01114
1.06578
1.00357
0.00590688
-1.06911e-19
-1.41353e-23
4.25329e-18
4.82691e-19
3.94497e-21
1.31758e-24
7.29155e-29
2.1048e-32
8.68537e-36
3.70596e-39
1.63146e-42
6.70247e-46
4.58666e-49
1.25481e-52
6.33507e-56
2.50646e-59
2.76538e-62
4.53065e-66
1.64538e-69
2.20131e-72
9.32552e-75
1.65698e-78
1.84105e-82
3.24244e-85
2.8875e-89
6.46662e-92
3.73622e-95
6.69175e-98
1.19962e-101
6.96736e-104
5.23597e-107
8.2126e-111
2.43747e-114
8.18376e-117
2.47045e-120
1.43764e-123
2.06575e-126
2.55334e-130
3.84774e-132
1.04517e-135
4.93291e-140
1.49259e-141
1.04646
1.0486
0.97445
1.03168
1.01411
1.05432
1.00051
-3.52991e-16
-3.04979e-19
2.44227e-22
1.85826e-17
3.18633e-19
1.36039e-22
1.26885e-26
3.27415e-30
1.17697e-33
5.02338e-37
2.16469e-40
1.04041e-43
5.21498e-47
1.86356e-50
1.06042e-53
5.08395e-57
1.44417e-60
5.87416e-64
1.7376e-66
1.20704e-69
2.0744e-73
3.21505e-77
3.48912e-79
4.63438e-83
7.64622e-86
7.99692e-89
1.44641e-92
6.26425e-96
1.71624e-98
1.38797e-102
5.82714e-105
4.40164e-108
1.44444e-110
1.01026e-114
7.74473e-118
6.38856e-121
4.02384e-124
5.78345e-128
6.95076e-132
2.28204e-135
8.8677e-139
3.4772e-142
4.50122e-145
1.08651
1.05587
0.992795
1.01103
0.970886
0.993136
1
-1.70054e-18
1.65928e-15
1.27e-16
2.03176e-19
5.24898e-21
2.78222e-23
8.06894e-27
5.39149e-31
1.68568e-34
7.01236e-38
2.94957e-41
1.23972e-44
5.19248e-48
2.16495e-51
9.06307e-55
3.77095e-58
1.57007e-61
8.09872e-65
2.76455e-68
1.12449e-71
4.70599e-75
2.08605e-78
8.83587e-82
2.9156e-84
5.5557e-88
1.11196e-91
3.4611e-95
2.24348e-97
6.35502e-101
2.80448e-104
3.65546e-108
9.81126e-112
7.37284e-114
1.27778e-116
2.64903e-119
5.72046e-123
5.94718e-127
1.45767e-129
2.94115e-133
1.23077e-135
1.56378e-138
2.38681e-141
4.66953e-145
1.00585
1.01264
1.00996
1.02626
1.02357
1.01664
0.311013
-1.26337e-22
2.4573e-23
8.20329e-18
1.63174e-18
3.91863e-20
7.12679e-23
8.37549e-27
1.09131e-30
4.09486e-34
1.71953e-37
7.2993e-41
3.10734e-44
1.38425e-47
5.58687e-51
2.35601e-54
9.87656e-58
4.09662e-61
1.82511e-64
7.82948e-68
7.15647e-71
1.68111e-74
4.47677e-77
1.78905e-80
2.12409e-83
1.34251e-86
7.39312e-90
4.50344e-93
4.03592e-97
3.94079e-100
7.26023e-103
1.63655e-106
1.28331e-108
3.12059e-112
2.23335e-116
7.95663e-120
1.32748e-121
6.01419e-125
1.83134e-128
3.19523e-131
4.78959e-135
9.21568e-138
9.03476e-142
9.37508e-145
1.03807
1.02383
1.00968
0.997762
0.795298
1.01054
0.0606086
6.91762e-14
1.22262e-16
2.28501e-17
4.49701e-18
2.31275e-19
1.78897e-21
1.31103e-24
2.04187e-28
9.11478e-32
6.83966e-35
5.06183e-38
3.63781e-41
2.60108e-44
1.85932e-47
1.32637e-50
9.43479e-54
6.69826e-57
4.74382e-60
3.35083e-63
2.36298e-66
1.66239e-69
1.16617e-72
8.16339e-76
5.69906e-79
3.96762e-82
2.758e-85
1.91311e-88
1.32471e-91
9.15318e-95
6.30544e-98
4.33096e-101
2.96995e-104
2.03369e-107
1.38938e-110
9.47263e-114
6.44265e-117
4.37107e-120
2.96004e-123
1.99913e-126
1.34701e-129
9.06604e-133
6.08698e-136
2.41528e-139
1.17441
1.10219
0.978428
1.03369
1.00015
1.0269
0.29845
6.00004e-12
1.14435e-13
3.74935e-15
4.48409e-18
4.48409e-20
1.83235e-22
7.56786e-26
1.23807e-29
7.39381e-33
5.56434e-36
4.0179e-39
2.86244e-42
2.034e-45
1.44529e-48
1.02404e-51
7.2496e-55
5.11794e-58
3.60279e-61
2.5316e-64
1.77686e-67
1.24336e-70
8.67572e-74
6.04365e-77
4.21197e-80
2.92435e-83
2.0229e-86
1.39886e-89
9.64655e-93
6.64177e-96
4.56622e-99
3.12587e-102
2.13878e-105
1.45919e-108
9.94021e-112
6.75136e-115
4.58097e-118
3.10995e-121
2.09684e-124
1.41368e-127
9.51797e-131
6.39022e-134
4.28229e-137
1.70148e-140
1.14038
1.00149
1.06462
0.999665
1.0923
1.01112
1
1.73286e-10
2.4268e-15
3.12379e-16
3.09369e-16
1.51431e-17
3.67026e-20
5.79664e-24
1.07324e-27
7.40653e-31
5.43032e-34
3.83606e-37
2.69246e-40
1.88767e-43
1.32162e-46
9.23638e-50
6.44003e-53
4.48287e-56
3.11153e-59
2.15548e-62
1.491e-65
1.0286e-68
7.08073e-72
4.87266e-75
3.34648e-78
2.29395e-81
1.57028e-84
1.07197e-87
7.29175e-91
4.95664e-94
3.36355e-97
2.27708e-100
1.53909e-103
1.03764e-106
6.97924e-110
4.68661e-113
3.1423e-116
2.10326e-119
1.4057e-122
9.3772e-126
6.24018e-129
4.14353e-132
2.74511e-135
1.07756e-138
1.21877
1.02251
0.938312
1.05714
1.04967
1.00461
1.00055
4.51546e-07
9.22972e-15
4.07811e-17
3.31936e-17
5.41808e-18
1.22915e-19
2.23026e-22
3.53763e-26
8.52001e-30
6.07409e-33
4.45121e-36
3.15261e-39
2.22139e-42
1.56443e-45
1.09921e-48
7.7007e-52
5.39464e-55
3.76381e-58
2.622e-61
1.82412e-64
1.26682e-67
8.79372e-71
6.06731e-74
4.18417e-77
2.88074e-80
1.97765e-83
1.35558e-86
9.27678e-90
6.33522e-93
4.31832e-96
2.93707e-99
1.99265e-102
1.34932e-105
9.11986e-109
6.17667e-112
4.15656e-115
2.79681e-118
1.86941e-121
1.25119e-124
8.35506e-128
5.57089e-131
3.70587e-134
1.46005e-137
1.00921
1.01885
0.985595
1.00561
0.998894
1.00413
1.00164
0.043791
9.09367e-14
3.95987e-16
2.91062e-16
6.77895e-17
2.70295e-18
9.24639e-21
2.13027e-24
3.41974e-28
2.22784e-31
1.64596e-34
1.16685e-37
8.19711e-41
5.75743e-44
4.03721e-47
2.82318e-50
1.97175e-53
1.37382e-56
9.54916e-60
6.62944e-63
4.59226e-66
3.1727e-69
2.18793e-72
1.50588e-75
1.03395e-78
7.08935e-82
4.84802e-85
3.30822e-88
2.25449e-91
1.53288e-94
1.03955e-97
7.03849e-101
4.75781e-104
3.21003e-107
2.16271e-110
1.45346e-113
9.74399e-117
6.52143e-120
4.35646e-123
2.90345e-126
1.93218e-129
1.28319e-132
5.04396e-136
0.98582
1.15222
0.996185
0.971566
0.999079
0.962778
1.00247
0.108553
6.45338e-14
6.02705e-16
5.18454e-16
1.31669e-16
5.73318e-18
2.08251e-20
4.85295e-24
7.41756e-28
4.79929e-31
3.54443e-34
2.5105e-37
1.7615e-40
1.23496e-43
8.64776e-47
6.04153e-50
4.21259e-53
2.93055e-56
2.03362e-59
1.41029e-62
9.7587e-66
6.73598e-69
4.64143e-72
3.18864e-75
2.18518e-78
1.49675e-81
1.0231e-84
6.97378e-88
4.74633e-91
3.22329e-94
2.18435e-97
1.47829e-100
9.98319e-104
6.72838e-107
4.52745e-110
3.03906e-113
2.03453e-116
1.35999e-119
9.0714e-123
6.03678e-126
4.01395e-129
2.66522e-132
1.04773e-135
0.964813
0.75739
0.827072
1.0422
1.01698
1.06531
1.00439
0.0120557
3.3769e-15
2.76845e-17
2.39049e-17
3.64253e-18
7.80806e-20
1.41315e-22
2.38635e-26
5.88071e-30
4.12379e-33
3.01555e-36
2.12611e-39
1.49739e-42
1.06173e-45
7.46117e-49
5.19888e-52
3.65473e-55
2.58156e-58
1.77349e-61
1.23219e-64
8.56227e-68
5.94005e-71
4.13659e-74
2.83726e-77
1.95254e-80
1.34391e-83
9.22311e-87
6.36954e-90
4.32366e-93
2.94517e-96
2.01467e-99
1.37178e-102
9.23671e-106
6.24428e-109
4.21978e-112
2.84203e-115
1.91422e-118
1.28178e-121
8.57884e-125
5.79987e-128
3.83101e-131
2.55232e-134
1.07706e-137
1.11575
0.975243
0.979715
1.00628
1.02104
1.03944
1.00088
8.10167e-09
2.04557e-15
3.76739e-16
3.7519e-16
2.12317e-17
6.29418e-20
1.10897e-23
1.83376e-27
1.23318e-30
9.06346e-34
6.40761e-37
4.49563e-40
3.15156e-43
2.20664e-46
1.54152e-49
1.07434e-52
7.47607e-56
5.19173e-59
3.59653e-62
2.48687e-65
1.71565e-68
1.18091e-71
8.12089e-75
5.57778e-78
3.82215e-81
2.61389e-84
1.78282e-87
1.21323e-90
8.24691e-94
5.59366e-97
3.78521e-100
2.55854e-103
1.72532e-106
1.16046e-109
7.79331e-113
5.22387e-116
3.49391e-119
2.33329e-122
1.55489e-125
1.03318e-128
6.8565e-132
4.54625e-135
1.78576e-138
1.0609
1.0457
0.899858
0.999187
1
0.999783
0.995619
1.9568e-12
5.15161e-14
6.50788e-15
2.75117e-17
2.45814e-20
3.41314e-23
1.17295e-26
3.59595e-30
2.39899e-33
1.79902e-36
1.29477e-39
9.22937e-43
6.60185e-46
4.72624e-49
3.38289e-52
2.41833e-55
1.71816e-58
1.24e-61
8.74187e-65
6.13242e-68
4.32961e-71
3.0636e-74
2.1429e-77
1.51904e-80
1.05245e-83
7.38588e-87
5.10324e-90
3.5426e-93
2.45702e-96
1.69916e-99
1.17206e-102
8.0615e-106
5.54438e-109
3.79859e-112
2.59946e-115
1.77638e-118
1.20698e-121
8.21597e-125
5.60214e-128
3.77142e-131
2.54485e-134
1.71853e-137
6.85783e-141
1.04032
1.02583
1.02588
1.02412
1.00416
1.04258
0.319848
1.17908e-13
1.75834e-16
1.46243e-17
2.43948e-18
9.47113e-20
6.36564e-22
4.53283e-25
7.63311e-29
3.58606e-32
2.70486e-35
2.01055e-38
1.4521e-41
1.04338e-44
7.49047e-48
5.36447e-51
3.83108e-54
2.73116e-57
1.94198e-60
1.37707e-63
9.74572e-67
6.88192e-70
4.84791e-73
3.40709e-76
2.38808e-79
1.66913e-82
1.16358e-85
8.09656e-89
5.62047e-92
3.89502e-95
2.69236e-98
1.85587e-101
1.27639e-104
8.76412e-108
6.00365e-111
4.10383e-114
2.79905e-117
1.90429e-120
1.29292e-123
8.75662e-127
5.91765e-130
3.99445e-133
2.68834e-136
1.06876e-139
1.0586
1.04085
0.9884
0.999148
0.984337
0.990849
0.0598316
-1.08195e-18
1.2107e-20
4.48263e-18
8.20601e-19
1.74316e-20
2.58428e-23
2.51232e-27
3.68965e-31
1.49439e-34
5.96962e-38
2.56902e-41
1.16858e-44
7.06204e-48
2.38729e-51
1.08324e-54
5.17333e-58
1.67921e-61
1.25055e-64
2.0686e-67
3.102e-71
1.37533e-74
1.45937e-77
4.90358e-81
5.44021e-83
1.57224e-86
1.97106e-90
6.59971e-93
2.93606e-96
1.38155e-99
1.13814e-102
9.21154e-106
6.2022e-110
1.06269e-111
5.3753e-115
3.94832e-119
1.77156e-121
2.39167e-125
1.1435e-128
6.81111e-131
1.49189e-134
1.34494e-137
1.90002e-140
3.26552e-143
1.09129
0.996623
1.00287
1.01412
0.926582
1.02704
0.296477
2.58796e-12
3.17068e-15
3.4102e-17
1.40022e-19
6.84482e-21
2.64979e-23
3.5604e-27
2.65355e-31
9.41175e-35
3.92179e-38
1.65128e-41
6.95146e-45
2.86072e-48
1.23108e-51
5.04541e-55
2.34663e-58
9.11014e-62
4.02973e-65
1.60775e-68
1.02227e-71
2.96073e-75
7.68306e-78
1.63697e-81
1.10232e-84
1.72917e-87
1.91314e-90
2.76468e-94
2.46158e-97
1.48187e-100
2.04404e-104
4.89531e-108
4.03442e-109
5.50618e-112
4.74082e-116
8.56533e-120
6.40129e-123
3.64116e-125
9.42001e-129
1.05981e-132
2.15808e-135
2.11132e-139
5.02011e-143
2.85138e-145
1.00163
0.996807
1.03001
1.01638
0.881006
1.01277
1
8.13907e-11
-1.85175e-18
2.01077e-20
1.9291e-17
2.4824e-19
1.18388e-22
1.43626e-26
3.66925e-30
1.27832e-33
5.37143e-37
2.51461e-40
1.11895e-43
4.36509e-47
2.15547e-50
8.25598e-54
5.49217e-57
2.74008e-60
1.41311e-63
4.5713e-67
5.33638e-70
6.99763e-74
2.84976e-77
2.54692e-79
4.05538e-83
3.48531e-87
2.63176e-90
2.72853e-92
7.88188e-96
8.58289e-99
3.5619e-102
1.34203e-105
1.11508e-108
1.25557e-111
2.04636e-114
2.16654e-118
1.69951e-121
3.41677e-124
9.30169e-128
5.98945e-132
1.28363e-133
1.10713e-136
2.28628e-140
5.87362e-143
1.02359
1.03313
0.994994
1.02662
1.02246
1.00037
1.00048
3.5599e-07
-3.96073e-19
-6.52523e-22
4.63075e-18
5.32765e-19
4.48586e-21
1.55735e-24
8.49857e-29
2.42684e-32
1.00211e-35
4.28256e-39
1.78565e-42
7.53731e-46
3.2156e-49
1.29869e-52
7.13672e-56
4.00226e-59
1.43862e-62
7.09788e-66
1.86694e-69
1.86997e-71
1.14049e-74
6.04729e-79
2.24803e-81
1.5868e-84
1.23577e-88
4.01201e-92
4.82672e-95
1.73454e-98
3.43674e-101
3.25272e-104
1.96568e-108
4.62484e-110
2.00007e-113
2.831e-116
3.0868e-119
1.95865e-122
1.36186e-125
6.1738e-129
3.9734e-132
2.14346e-136
4.92747e-140
1.95323e-143
1.03254
1.01637
1
0.983582
0.980303
1.00286
1.00158
0.0430588
-4.12657e-18
-9.20573e-21
2.27125e-17
3.45619e-18
4.80239e-20
3.28202e-23
1.87981e-27
4.19169e-31
1.68132e-34
7.08152e-38
3.2606e-41
1.30178e-44
5.19296e-48
2.35809e-51
1.05818e-54
5.89075e-58
2.66963e-61
6.02044e-64
5.57032e-68
1.40653e-71
9.02454e-75
4.87187e-77
3.59852e-80
2.00498e-84
2.45355e-86
7.07694e-90
1.38303e-92
1.27402e-96
4.05578e-99
1.35655e-102
5.27697e-105
1.83265e-108
1.91508e-112
1.6325e-114
5.54185e-118
8.69703e-122
1.56324e-124
1.46906e-128
3.34526e-130
1.55683e-133
5.66609e-137
1.28241e-139
1.02384
0.999794
0.980924
0.929328
0.989366
0.997477
1.00215
0.109409
-4.86725e-18
-2.63243e-21
1.7655e-17
2.6991e-18
3.79849e-20
2.69452e-23
1.5481e-27
3.41487e-31
1.3775e-34
5.94682e-38
2.55185e-41
3.05154e-44
5.92638e-48
4.55137e-51
1.62069e-54
5.3948e-58
5.08592e-61
8.17993e-65
6.07207e-68
1.37443e-71
4.79468e-75
4.11255e-76
4.07413e-79
2.22636e-82
1.52933e-86
1.73048e-89
1.72996e-93
3.68107e-96
3.23235e-99
3.56931e-102
2.29785e-106
2.14236e-108
1.16507e-111
1.12388e-115
1.04394e-117
6.346e-121
1.23218e-124
9.09918e-129
3.7596e-132
1.58884e-133
6.73135e-137
1.92276e-141
1.03451
1.0552
1.00055
1.03365
1.0615
1.06183
1.00406
0.0112546
-1.07308e-19
-1.41708e-23
4.13072e-18
4.68606e-19
3.82576e-21
1.27687e-24
7.07699e-29
2.04416e-32
8.43404e-36
3.67143e-39
1.57892e-42
6.44298e-46
4.72433e-49
1.30064e-52
5.42965e-56
2.62817e-59
1.35965e-62
1.29935e-65
2.32648e-69
1.07595e-72
7.94423e-75
2.62971e-78
1.8069e-82
2.4131e-85
5.40625e-89
9.4876e-92
2.12796e-94
4.35487e-98
7.07717e-102
5.68806e-104
1.01047e-107
2.07246e-111
5.56391e-114
3.74567e-118
4.35837e-120
1.28338e-123
7.95158e-127
5.16467e-131
1.20895e-134
4.70093e-138
2.63613e-141
2.78716e-141
1.08202
1.01622
0.999984
1.00638
1.00108
1.03613
1.00083
4.82579e-09
-2.92479e-19
2.532e-22
1.86479e-17
3.27991e-19
1.37291e-22
1.25885e-26
3.26915e-30
1.16498e-33
4.89132e-37
2.12231e-40
1.10523e-43
4.68958e-47
1.81982e-50
1.06183e-53
5.75593e-57
1.42519e-60
1.95168e-63
3.71784e-67
7.85873e-70
1.03891e-72
7.61321e-77
5.97707e-80
1.0794e-83
3.12772e-86
5.72879e-89
2.07951e-92
4.71297e-96
9.33527e-99
7.64544e-102
1.61629e-105
3.40764e-108
3.78332e-111
9.29555e-115
8.02681e-117
1.76573e-120
1.98269e-124
7.29733e-128
1.18596e-131
3.98266e-135
1.55003e-138
6.08643e-142
4.96538e-145
1.07518
1.10989
0.973447
0.9844
0.979169
0.989805
0.995589
7.87515e-13
1.58949e-15
1.37158e-16
2.08674e-19
4.93399e-21
2.55052e-23
7.34377e-27
4.97271e-31
1.55962e-34
6.49023e-38
2.72688e-41
1.14574e-44
4.80752e-48
2.00318e-51
8.38269e-55
3.4875e-58
1.45475e-61
6.03041e-65
2.88961e-68
1.09564e-71
4.34267e-75
1.75317e-78
8.68613e-82
1.88847e-84
3.48035e-88
4.63156e-91
3.28838e-94
2.38454e-97
6.844e-101
1.86856e-104
2.23845e-107
2.33922e-111
1.12866e-113
1.99922e-117
2.7604e-121
2.89545e-123
4.04559e-126
1.32066e-129
2.8533e-133
4.57506e-136
4.33723e-139
2.64028e-141
8.49663e-145
1.08633
1.00478
1.03923
1.01415
0.999799
1.04315
0.319409
-1.38174e-22
2.50649e-23
6.08343e-18
1.19068e-18
2.77831e-20
5.05683e-23
6.05772e-27
7.91643e-31
2.96499e-34
1.24822e-37
5.362e-41
2.2634e-44
9.54701e-48
4.07945e-51
1.76163e-54
7.17461e-58
3.04778e-61
1.58969e-64
6.41701e-68
3.02697e-71
1.07284e-74
2.34747e-77
1.00273e-80
1.1289e-84
1.57155e-86
6.10922e-90
3.96845e-94
1.41011e-97
6.60096e-100
4.65908e-103
5.87347e-107
1.30804e-108
6.92126e-112
1.99938e-115
5.32761e-118
1.55067e-121
2.23409e-125
3.72959e-128
4.21093e-131
2.0541e-134
1.56356e-137
1.22758e-141
4.4674e-145
0.73243
1.01953
0.854612
1.01051
0.73031
1.02516
0.854499
0.986232
0.962801
1.00044
1.02427
0.984588
0.930026
1.00084
1.00065
1.05101
1.00069
1.00391
1.00097
1.04453
1.00123
0.999987
0.999434
1.00184
1.0046
1.00014
0.988121
1.00179
1.00382
1
1.00342
1.00532
1.00391
1
1.00296
1.00292
1.01764
1.00521
0.998227
1.00283
1.01655
1.00508
1.0048
1.01123
1.00317
1.06714
1.00582
1.02317
1.00308
1.00253
1.02262
1.00075
1.08
1.00284
1.01242
1.0007
1.00009
0.986005
1
0.990801
1.00043
0.994851
1
0.979594
1.01024
0.757129
1.02675
0.975292
1.01144
0.756201
0.729421
1.03192
0.854166
0.99908
0.729987
1.05022
0.852188
0.984225
0.972092
1.00106
1.02154
0.984382
1.01122
1.00168
1.00151
1.04228
1.00159
1.01031
1.0012
1.02019
1.00115
1.00057
0.985387
1.00196
1.00151
1.00008
0.991149
1.0017
1.00442
1
1.00316
1.00361
1.00394
0.999909
1.00232
1.00298
1.01565
1.00555
0.99046
1.00239
1.01731
1.00536
1.00602
1.02097
1.00349
1.06299
1.00575
1.02051
1.00317
1.00322
1.01315
1.00093
1.03949
1.00326
1.00392
1.00073
1.00064
0.98214
1.00003
0.976445
1.00052
0.988946
1
0.974958
1.00969
0.755001
1.04233
0.97432
1.01269
0.756404
0.729685
1.04327
0.851567
1.00243
0.729927
1.04719
0.85306
0.985088
1.01072
1.00197
1.0336
0.987921
1.01236
1.00121
1.00139
1.01169
1.00167
1.01793
1.00076
1
1.00075
1.00038
0.914264
1.00192
0.995856
1.00002
0.964991
1.0018
1.00428
1.00001
1.00293
1.00323
1.00378
1
1.00238
1.00271
1.01497
1.00522
0.991035
1.00225
1.01752
1.00525
1.00583
1.02318
1.00354
1.04083
1.00554
1.01737
1.00317
1.00339
1.00141
1.00086
1.02899
1.00236
1.00016
1.00066
1.00071
0.990015
1
0.979475
1.00021
1.0052
1
0.974772
1.01065
0.755692
1.04159
0.977412
1.00263
0.755141
1.01876
1.02016
1.00751
0.994699
1.04058
1.06072
1.03173
1.01327
1.00321
1.01116
1.01149
1
1.01549
1.00335
-5.93564e-23
0.131045
-2.3187e-21
0.0597445
2.56876e-11
0.138426
2.56873e-11
1.01977
1.03269
0.978085
1.09647
1.02542
0.977092
0.915464
1.01549
1.01936
0.994618
1.01033
1.01926
1.00332
1.01767
-1.66183e-18
0.927034
-1.98862e-18
0.297852
1.97831e-09
0.925036
4.77026e-10
0.976409
1.03357
1.12309
1.13924
0.991945
1.01649
1.09967
1.0036
1.00288
0.997864
0.999598
1.00216
0.999537
1.00509
-8.19939e-17
1.00014
0.00810175
1
6.94429e-08
1.00049
0.0135458
0.999816
1.00774
1.00776
1.02922
0.989971
0.997502
1.0126
0.965786
0.999896
1.00276
1.00229
0.997858
1.01171
0.959948
0.0953625
1.00194
0.586262
1.00072
0.102732
1.00179
0.587452
1.00359
0.999398
0.983141
0.942662
1
0.997196
0.949009
1.00415
1.0047
1.00804
1.00595
1.00479
1.00844
1.00434
0.702223
1.00153
0.821558
1.00178
0.702866
1.00202
0.819327
0.951363
1.01489
1.05116
0.987395
0.888538
1.01869
1.04498
0.990562
1
0.956352
0.995054
1
0.976962
0.995459
0.827923
1.00243
0.691596
1.00245
0.825361
1.00293
0.690829
1.09746
1.01078
0.925962
1.0167
1.09673
1
1.07423
1.00526
1.02662
0.994543
1.0656
1.02539
0.996327
1.00396
0.559872
1.00171
0.0981697
1.00432
0.560988
1.0017
0.105373
1.02474
1.0009
0.998908
0.997457
1.14861
1.00203
0.988245
1.02762
1.0246
1.04415
1.05148
1.02843
1.03784
1.02942
0.0116635
1
-1.6966e-15
1.00112
0.0179015
1
1.14343e-07
0.939491
1.02011
1.00269
0.998673
0.907838
1.00118
1.02216
0.981842
1.00099
0.968039
0.990905
1.00053
0.954656
0.984379
-5.00899e-20
0.493242
-6.33352e-16
0.99659
7.39805e-10
0.494177
1.27048e-08
1.0211
0.987406
1.02003
1
1.01628
0.994114
1.01687
1.00532
1.00852
1.01417
1.01871
1.00879
1.0148
1.00586
-5.38633e-19
0.0557579
-3.41403e-23
0.319206
4.65588e-11
0.0626112
4.65591e-11
1.03157
1.07733
1.04334
0.873981
1.01505
1.03935
1.00738
1.00687
1.00403
0.921966
1.00584
1.00013
0.931984
1.00412
1.03014e-10
0.138967
9.84948e-11
0.0605033
9.84951e-11
0.140408
9.84945e-11
0.989469
1.1772
0.918464
0.946323
1.03014
1.03337
0.952202
1.00546
1.01813
0.945684
1.04703
1.00584
1.01837
0.945176
3.89643e-09
0.924135
9.80022e-10
0.297977
4.289e-09
0.921785
9.47493e-10
1.01779
1.02339
1.0611
0.998686
1.02057
1.02388
1.01343
1.00015
1.00716
0.967098
1.00512
0.999873
1.00569
0.965576
1.12917e-07
1.00085
0.0143085
1
1.13159e-07
1.00052
0.0143531
0.969308
1.03622
1.02984
1.07874
0.949948
1.03605
1.00347
0.981885
0.995131
1.00007
1.00702
0.984728
0.996258
1.00116
0.103104
1.00201
0.587124
1.00078
0.103088
1.00164
0.587313
0.997899
0.99515
0.942011
0.999978
1.00255
0.992075
0.939425
1.00019
1.00423
1.00019
1.00388
1.00114
1.00428
0.998253
0.703508
1.00241
0.82022
1.00156
0.70379
1.00234
0.819867
0.933131
1.00557
1.04278
1.01036
0.946251
1
1.00404
1.00001
0.999363
0.975837
0.949827
0.999999
0.999365
0.948968
0.82706
1.00298
0.691214
1.0026
0.826209
1.00319
0.690875
1.09837
0.987967
1.11306
1.08606
1.00114
1.0118
0.994653
1.00626
1.02055
1.01824
1.06502
1.00594
1.01951
1.018
0.560381
1.002
0.106227
1.00387
0.560594
1.00173
0.105908
0.91619
0.999196
0.998788
1.02074
0.98791
1.24755
1.11208
1.01219
1.0244
0.969947
1.05513
1.00954
1.02371
0.984224
0.0187264
1
1.79178e-07
1.00117
0.0188898
1
1.79351e-07
0.8866
1.00209
1.0234
1.00113
0.950263
1
1.03167
0.992689
1
0.866105
0.989695
0.986414
1
0.86393
1.36309e-09
0.494102
2.03673e-08
0.995391
1.35628e-09
0.493828
2.07419e-08
1.01107
0.993493
1.00354
1.0029
1.05696
0.973216
1.01767
1.00325
1.00629
1.01331
1.03888
1.00358
1.00515
1.01278
1.74512e-10
0.063516
1.74512e-10
0.320274
1.74511e-10
0.0625966
1.74512e-10
1.01809
0.98719
1.03899
0.948403
1
1.00399
1.00719
1.02004
1.00211
1.00149
0.99215
1.00718
1.02758
1.00197
2.55389e-11
0.140136
2.55386e-11
0.0531608
-5.19049e-23
0.131119
-2.54636e-21
1.07783
0.923069
0.925444
0.957215
1.02491
1.01907
0.971372
1.00665
1.01755
0.982572
1.01879
1.00879
1.01468
0.993491
2.38543e-09
0.921885
4.60555e-10
0.289954
-9.66083e-18
0.926027
-2.00261e-18
1.05211
1.01635
1.00221
0.99912
1.034
0.997934
0.978694
0.999977
1.00785
0.967432
1.01307
1.00036
1.00809
0.979985
6.99732e-08
1.00082
0.0134634
1
-9.6109e-17
1.00015
0.00807583
1
1.01661
0.984989
1.03278
0.942801
0.962147
0.949969
0.992061
0.995768
0.913854
1.00008
0.968181
0.999077
0.900617
0.10217
1.00185
0.586946
1.00015
0.095071
1.00158
0.586286
0.977723
0.987711
0.94068
0.94682
0.990442
0.993329
1
0.998865
1.00393
0.983029
0.991794
0.998938
1.00404
0.977953
0.703552
1.00217
0.81864
1.00132
0.702291
1.0013
0.821809
0.93898
0.934178
0.990148
1.01762
0.959651
1.03241
1.01287
1
1.00001
0.953818
0.998629
1.00002
1.00005
0.965584
0.825426
1.00272
0.691219
1.00158
0.82809
1.0025
0.691427
1.01093
1.02408
1.0378
1.01721
1.04595
1.09011
1.02953
1.0095
1.01975
1.02735
1.05115
1.00804
1.02032
1.02278
0.560387
1.00197
0.105474
1.00389
0.559497
1.00167
0.0982478
1.11858
1.17133
0.888253
1.06315
1.03406
0.94741
0.925673
1.01336
1.02319
0.944115
1.02134
1.01365
1.02407
0.96453
0.0178292
1
1.15589e-07
1.0005
0.0116756
1
-1.94157e-15
0.900052
0.985982
1.03381
1.01263
0.965937
0.963832
1.03301
0.987141
1
0.855244
0.996677
0.960449
1
0.850325
7.19071e-10
0.493784
1.30352e-08
1
-5.07336e-20
0.492464
-4.70231e-16
1.06112
0.986808
1.00692
0.991883
1.06485
0.984281
1.0004
1.00223
1.00544
1.00944
1.04311
1.00234
1.00713
1.01164
4.71872e-11
0.0624511
4.71874e-11
0.313049
-5.17742e-19
0.0565399
-3.61904e-23
1.00726
1.00025
0.737128
0.731659
0.732543
1.00534
1.00062
1.00344
1.02565
1.01061
1.02312
1.0287
1.01211
1.00474
1.00059
0.749799
1.0016
0.855357
0.750802
1.00116
1.00035
1.00735
1.01008
1.00374
0.926261
0.946321
1.00529
1.00348
1.00725
0.729912
1.00099
0.733525
0.730878
1.00653
1.00106
1.00377
1.02475
1.02466
1.01262
1.02503
1.0119
1.00457
1.00042
0.854832
0.750379
1.00103
0.750666
1.001
1.0005
1.01043
1.00212
1.00057
0.985274
1.00218
1.00045
1.00996
1.00013
0.993414
0.991213
0.979722
0.996648
0.990464
0.999962
1.00037
1.00008
1
1.00058
1.00024
1
1.0004
1.0151
1.0297
1.01874
0.948554
1.01888
0.999161
1.00854
1.01043
0.984842
1.0023
1.00053
1.00219
1.00046
1.00964
1.00005
0.951058
1.00126
0.997476
0.991245
0.993919
1.00041
1.00038
1.00099
1.00045
1
1.00056
1.00004
1.00053
1.0036
1.00095
1.00144
1.00082
1.00118
1.00166
1.00368
1.01495
1.00485
1.00803
1.04623
1.00105
1.00783
1.01625
1.01117
1.00363
1.00132
1.00079
1.00593
1.00143
1.01124
1.00497
1.01189
1.00682
0.978844
1.01039
1
1.00216
1.00413
1.00144
1.00186
1.00173
1.00217
1.00208
1.00358
1.01457
1.04552
0.998436
1.00812
1.00218
1.0082
1.01171
1.01081
1.00137
1.00464
1.00164
1.00567
1.00173
1.01023
0.998961
0.999256
1.00004
1.00003
0.99971
1.00012
1.00014
0.990335
0.918196
0.999369
0.994047
0.924034
0.999766
0.997612
1
1.00044
1.00163
1.00177
1.00027
1.0017
1
0.982351
0.997149
0.993646
1.03507
0.995437
1.02999
0.992842
0.996468
1.00052
0.999846
1.00009
0.999897
1.0001
0.999474
0.986349
0.988158
0.942729
1.00025
0.947965
1.00013
0.989953
1.00002
1.00187
1.00026
1.00187
1.00046
1.00183
1.00001
1.00315
1.00429
1.00526
1.00404
1.00423
1.00518
1.00366
1.00004
0.999272
1.00007
1
0.998714
1.00045
1.00033
1.00158
1.00385
1.00153
1.00333
1.00397
1.00096
1.00238
1.00435
1.00631
1.00471
1.00344
1.00486
1.00642
1.00322
1.00354
1.00429
1.00424
1.0051
1.0046
1.00527
1.00313
1.00034
1
1
1.00029
1
1.00063
1.00007
1.00184
1.00377
1.00391
1.00093
1.00448
1.0013
1.00138
1.00043
1.00123
1.00363
1.00307
1.00096
1.00349
1.00089
1.00112
1.00299
1.00481
1.01637
1.00201
1.00521
1.00083
1.00228
1.00471
1.00594
1.0051
1.00459
1.00576
1.00201
0.999971
0.996108
1
0.962028
1
0.964894
0.999594
1.00065
1.00313
1.00096
1.0032
1.00112
1.00363
1.0004
1.00177
1.01602
1.00391
1.00606
1.002
1.00574
1.00166
1.00262
1.00517
1.00445
1.0058
1.00471
1.00594
1.00263
1.00654
1.00693
1.00572
1.00434
1.00657
1.00557
1.00666
1
0.983985
1.0076
1.01582
0.986453
1.00867
0.996104
1.00113
1.0036
1.0047
1.00312
1.00329
1.00498
1.00119
1.00561
1.0679
1.0194
1.00606
1.0226
1.00197
1.00598
1.0067
1.00439
1.008
1.00558
1.00683
1.00576
1.0066
1
1.01351
0.984054
1.00976
0.990675
1.00867
1.00018
1.00109
1.00346
1.0028
1.0053
1.00338
1.00527
1.00112
1.01268
1.00872
1.0026
1.00273
1.00942
1.00256
1.01174
1.02801
1.04036
1.01181
1.02301
1.03928
1.01167
1.02584
1.00614
1.00072
1.00314
1.00078
1.00089
1.00372
1.00748
1.02687
1.03568
1.02633
1.0038
1.02607
1.02631
1.01755
1.0128
1.00295
1.0105
1.00266
1.00983
1.00243
1.01281
1.02604
1.01633
1.03869
1.01151
1.039
1.01174
1.02664
1.00568
1.00094
1.00083
1.004
1.00097
1.004
1.00553
0.998891
1.00087
1
1.00025
1.00139
1
0.998672
0.951951
0.965626
0.994475
0.987525
0.870946
0.997375
0.974609
0.995609
1
0.999196
1
1
0.998937
0.987649
0.989558
0.996907
1
0.869234
1.00132
0.965074
0.984792
0.99861
1.00054
1.00136
1.00004
1.00164
1.00007
1
0.92622
0.988425
0.867593
0.995304
0.868927
0.998595
0.96164
0.998941
1.0001
1
0.998594
1
0.99948
0.999973
1.00008
1.00022
0.878907
0.977799
1
0.879808
1.00027
1.00173
1.00994
1.00192
1.01082
1.01045
1.00174
1.00308
1.00083
0.837411
1.00009
0.756802
0.836048
1.0007
1.00037
1.00466
1.02107
1.00781
1.0148
1.0082
1.0142
1.0046
1.00017
0.976821
1
0.879586
0.999989
0.879307
1.00002
1.00144
1.01132
1.01081
1.00342
1.01067
1.00115
1.00326
1.00101
0.754936
0.836388
1.00062
0.834757
1.00055
1.00084
1.00507
1.00105
0.735396
0.72997
1.00591
0.737724
1.00068
1.00687
1.01344
1.01244
1.04659
1.00612
0.996492
1.01269
1.00036
0.748841
1.00112
0.853465
1.00039
0.747874
1.00117
1.00709
1.01177
1.00309
0.983318
1.0026
1.00717
1.0038
1.00467
0.729754
1.00069
0.736828
0.737463
1.00462
1.00072
1.00722
1.03398
0.980143
1.01326
0.979562
1.01365
1.00809
1.00043
0.852909
0.743967
1.00099
0.746177
1.00149
1.00056
1.0082
1.00249
1.00095
0.984138
1.00893
1.00249
1.00152
1.00481
1.02216
0.992953
1
1.00371
1.03697
0.996659
1.00185
1.00083
1.00003
1.00099
1.00133
1.00078
1.00014
1.00922
1.03771
1.01811
0.959076
1.01797
0.946474
1.00634
1.00784
0.984203
1.00266
1.00286
1.00273
1.00234
1.00731
1.0051
1.00955
1.02196
1.00688
1.03189
1.00159
1.0056
1.00216
1.00144
1.00114
1.00351
1.00124
1.00181
1.00257
1.00312
1.00227
1.00217
1.00119
1.00321