/*--------------------------------*- C++ -*----------------------------------*\
| =========                 |                                                 |
| \\      /  F ield         | OpenFOAM: The Open Source CFD Toolbox           |
|  \\    /   O peration     | Version:  5.0                                   |
|   \\  /    A nd           | Web:      www.OpenFOAM.org                      |
|    \\/     M anipulation  |                                                 |
\*---------------------------------------------------------------------------*/
FoamFile
{
    version     2.0;
    format      ascii;
    class       surfaceVectorField;
    location    "3.5";
    object      ddtCorrDdt0(Uf);
}
// * * * * * * * * * * * * * * * * * * * * * * * * * * * * * * * * * * * * * //

dimensions      [0 1 -2 0 0 0 0];

internalField   nonuniform List<vector> 
27091
(
(0.000608546 -0.00387272 -0.00176108)
(0.000608546 -0.00387272 -0.00176108)
(0.000608546 -0.00387272 -0.00176108)
(0.000608546 -0.00387272 -0.00176108)
(0.000608546 -0.00387272 -0.00176108)
(0.000608546 -0.00387272 -0.00176108)
(0.000608546 -0.00387272 -0.00176108)
(0.000608546 -0.00387272 -0.00176108)
(0.00827106 -0.00512578 2.79522e-05)
(0.000608546 -0.00387272 -0.00176108)
(0.000608546 -0.00387272 -0.00176108)
(0.000608546 -0.00387272 -0.00176108)
(0.000608546 -0.00387272 -0.00176108)
(0.000608546 -0.00387272 -0.00176108)
(0.000608546 -0.00387272 -0.00176108)
(0.000608546 -0.00387272 -0.00176108)
(0.000608546 -0.00387272 -0.00176108)
(0.00346417 -0.0105876 0.000465632)
(0.000608546 -0.00387272 -0.00176108)
(0.000608546 -0.00387272 -0.00176108)
(0.000608546 -0.00387272 -0.00176108)
(-0.00703855 -0.0878688 0.00424886)
(0.555534 -0.0419207 0.000603148)
(0.697526 -0.0636743 0.0040295)
(0.0160661 -0.0439903 0.00121377)
(-0.269417 -0.0294505 0.047753)
(-0.0257974 -0.0114606 -0.0176986)
(0.14745 -0.050139 -0.446735)
(0.273219 -0.0333717 -0.00202568)
(-0.00142142 0.0160757 -0.000463383)
(0.000608546 -0.00387272 -0.00176108)
(0.000608546 -0.00387272 -0.00176108)
(0.000608546 -0.00387272 -0.00176108)
(-0.0158725 0.00359256 -0.000600412)
(0.449929 0.00978163 -0.00187944)
(0.567525 0.00506579 0.00114645)
(-0.011616 0.00828316 -0.00204039)
(-0.0109913 0.00789688 -0.00192001)
(-0.0112001 0.00820646 -0.00266423)
(-0.0105046 0.0086704 -0.00287413)
(0.449929 0.00978163 -0.00187944)
(0.449929 0.00978163 -0.00187944)
(0.449929 0.00978163 -0.00187944)
(-0.0197003 0.00223931 0.000339982)
(0.410227 0.00639034 0.00077942)
(0.524032 0.00199665 8.4262e-05)
(-0.020678 0.00209212 0.000138957)
(0.416019 0.0059931 0.000246205)
(0.530481 0.00226638 -0.000659653)
(-0.0224662 0.00155705 4.13415e-05)
(0.415426 0.00506342 5.65183e-05)
(0.53009 0.00167162 0.00130112)
(-0.022051 0.00214654 7.15921e-06)
(0.417113 0.00339788 -1.02134e-05)
(0.531445 0.00121045 0.00050778)
(-0.0144995 0.00218388 7.34303e-05)
(0.419839 0.00762821 9.59498e-05)
(0.534668 0.0026676 -0.00219531)
(-0.0149908 0.000563335 0.000200791)
(0.42044 0.00389637 -9.14676e-05)
(0.536486 0.00140827 0.00155587)
(-0.0113402 -0.000242615 0.000221493)
(0.42158 0.000901521 0.000336369)
(0.536165 -0.000365325 7.87726e-05)
(-0.0107286 -0.000208097 0.000169285)
(0.422531 0.00921448 5.68787e-05)
(0.535869 -0.000358343 -0.00211853)
(-0.00502308 0.000203018 0.000208961)
(0.424401 3.41034e-05 9.4987e-05)
(0.537233 -0.000220453 0.000181759)
(-0.00259073 0.000831702 0.00018288)
(0.427125 0.00389415 0.000165839)
(0.539474 0.000464877 0.00107507)
(0.000886989 0.000567109 4.01988e-05)
(0.426287 0.0171158 -6.72667e-05)
(0.538595 0.000615752 0.000531697)
(-0.00149923 0.00013653 -0.000145718)
(0.424962 0.000891752 -3.74207e-05)
(0.536467 -0.00013041 -0.00120388)
(0.00081038 0.000386871 -0.000200289)
(0.425536 0.00147798 -0.00016521)
(0.536543 -9.03307e-05 -0.00022222)
(0.00570175 0.000145951 -7.1326e-05)
(0.426635 -0.00202405 -0.000109511)
(0.537667 0.000563663 0.00192608)
(-0.000516097 -0.000351058 0.000159099)
(0.425898 -0.008028 0.000202405)
(0.536792 -0.0001326 0.000427889)
(0.0029015 -0.00055906 0.000252726)
(0.42529 0.00280847 0.000259078)
(0.535953 -0.000295772 -0.00143191)
(0.00518587 -0.000757549 7.43408e-05)
(0.425757 -0.00719197 0.000155129)
(0.53602 -0.000282754 0.000583789)
(0.0025246 -0.000403944 -0.000188197)
(0.42438 -0.0144911 6.27828e-05)
(0.534129 -0.000145097 0.000735853)
(-0.00210238 0.000327677 -0.000202764)
(0.421681 -0.00978449 -0.000134452)
(0.531145 0.000361702 -0.000123833)
(-0.000229869 0.000794211 4.00496e-05)
(0.420572 0.000684424 -4.60038e-05)
(0.530048 0.00075265 0.000401824)
(0.00446908 0.000377336 0.000128968)
(0.420083 0.00909635 7.82986e-05)
(0.529007 0.000763635 -0.00147165)
(-0.000251656 -1.37134e-05 4.83014e-05)
(0.417941 0.0020906 1.04929e-05)
(0.526153 -0.000376492 -0.000997879)
(0.0023246 0.000194499 0.000161099)
(0.417046 0.0178605 0.000106034)
(0.524887 -0.000403372 0.00102844)
(0.00819794 -3.60941e-05 0.000219987)
(0.41848 0.0127446 0.00011999)
(0.525774 -0.00025469 0.0012641)
(0.00130491 -0.00039743 -2.2842e-05)
(0.417704 -0.0109898 8.09647e-05)
(0.524745 -0.000462372 0.00110111)
(-0.00384707 0.000117852 -6.03723e-06)
(0.414712 -0.0125466 3.88918e-05)
(0.521622 -0.000371973 -0.000331451)
(0.00204386 0.00102333 0.000138309)
(0.414287 0.000830558 0.000121542)
(0.521019 0.000871666 -0.00090575)
(0.0144114 0.000488884 1.75556e-05)
(0.417338 0.00248929 7.04524e-05)
(0.52424 0.00162882 -0.000344868)
(0.0212797 -0.000704578 -0.000159023)
(0.420897 -0.0001703 -4.47367e-05)
(0.526833 -0.000138043 -0.000837135)
(0.0198518 -0.000223447 -0.000215019)
(0.421842 -0.00321204 -0.000208666)
(0.525634 -0.000683586 0.000328574)
(0.0169299 0.000802287 -4.4195e-05)
(0.420037 -0.016029 -7.22717e-05)
(0.523401 0.00104742 0.00160036)
(0.0201315 0.000907323 9.96543e-05)
(0.419812 -0.00686815 0.000314962)
(0.523935 0.00132005 -0.000762482)
(0.0302724 0.000859259 5.63388e-05)
(0.423719 0.00129161 0.000107143)
(0.527828 0.000851011 -0.00128325)
(0.027688 0.000586025 6.00805e-05)
(0.425294 0.000892753 -0.000133968)
(0.529307 0.000819123 0.00112103)
(0.017157 0.00019535 0.000151147)
(0.420884 0.00771467 -3.09295e-05)
(0.524934 -8.55569e-05 0.000993803)
(0.020338 -7.40507e-05 0.000133374)
(0.417845 0.0143679 -1.83834e-05)
(0.521136 -0.000271411 -0.00123182)
(0.0319383 -0.000552131 -8.35434e-05)
(0.420829 0.00318457 5.22092e-05)
(0.523614 -0.000482702 -0.000138359)
(0.0293007 -0.000875256 -0.000111262)
(0.423131 -0.00671619 -0.000113091)
(0.525649 -0.000731161 0.00147926)
(0.0249045 -0.000908613 0.000231631)
(0.421327 -0.00602237 5.7448e-05)
(0.523437 -0.000795026 -0.000192221)
(0.0276683 -0.00101063 0.000371895)
(0.420053 0.000201899 0.000310033)
(0.522283 -0.000824795 -0.000939236)
(0.0273666 -0.00099355 0.000168723)
(0.41922 0.00621527 0.000149413)
(0.521092 -0.00115375 0.000202989)
(0.416701 0.00660457 9.62394e-06)
(0.517353 -0.000913545 0.000355003)
(0.263148 0.00604498 -0.00390961)
(0.000608546 -0.00387272 -0.00176108)
(0.000608546 -0.00387272 -0.00176108)
(0.000608546 -0.00387272 -0.00176108)
(0.524358 0.000750237 6.93226e-05)
(0.000608546 -0.00387272 -0.00176108)
(-0.00156422 -0.0061872 -0.00208052)
(-0.00156422 -0.0061872 -0.00208052)
(-0.00156422 -0.0061872 -0.00208052)
(0.522901 -0.00570433 -3.48847e-06)
(0.000608546 -0.00387272 -0.00176108)
(0.000638662 -0.0128906 3.79062e-05)
(0.000638662 -0.0128906 3.79062e-05)
(0.000638662 -0.0128906 3.79062e-05)
(0.529487 -0.0179717 0.000600497)
(0.000608546 -0.00387272 -0.00176108)
(0.529487 -0.0179717 0.000600497)
(0.529487 -0.0179717 0.000600497)
(-0.0100825 -0.0243012 0.000131176)
(0.475022 -0.0174766 0.00103464)
(-0.0175856 -0.0389353 0.0301537)
(0.473395 -0.027595 0.00186699)
(0.534705 -0.0490177 0.0106614)
(-0.00483103 -0.0414791 0.00133703)
(3.45067 0.00970688 -0.0916446)
(0.0519664 -0.0958044 -0.120949)
(-0.205998 -0.124252 0.12899)
(2.50672 -0.0461463 -0.0921629)
(-7.0491 -0.0729711 0.0478112)
(0.00123294 0.0486309 -0.000450018)
(0.274875 0.00767493 0.00101757)
(0.000608546 -0.00387272 -0.00176108)
(0.274875 0.00767493 0.00101757)
(0.000608546 -0.00387272 -0.00176108)
(-0.0134516 0.00354698 -0.00238243)
(0.449929 0.00978163 -0.00187944)
(0.000608546 -0.00387272 -0.00176108)
(0.449929 0.00978163 -0.00187944)
(-0.020317 0.00170252 0.000685818)
(0.403307 0.0142001 0.0011163)
(0.522466 0.00181478 -0.000266555)
(-0.020354 0.00720078 -0.000500478)
(-0.020354 0.00720078 -0.000500478)
(-0.020354 0.00720078 -0.000500478)
(-0.020354 0.00720078 -0.000500478)
(-0.021747 0.00059385 0.000163829)
(0.414653 0.00440147 0.000165823)
(0.53098 -0.000896966 -0.00093572)
(-0.0245326 0.000385835 4.98526e-06)
(0.415176 0.00502053 9.44677e-05)
(0.530211 7.58567e-05 0.00029999)
(-0.0169737 -1.48915e-05 7.85427e-05)
(0.416622 -9.50922e-05 0.000121745)
(0.53252 -0.000593084 0.000315835)
(-0.019085 0.000142404 -6.88872e-05)
(0.420038 -0.00351881 0.000234981)
(0.534461 -0.000216725 -2.79137e-05)
(-0.0186194 -5.4876e-05 4.39713e-05)
(0.420202 -0.000208448 -0.000190183)
(0.533364 -0.000168175 0.00194728)
(-0.00971642 -0.000523043 0.000171845)
(0.421003 0.00140315 0.00023344)
(0.534993 -0.000455071 -0.00201748)
(-0.0132668 -0.000156747 -1.74319e-05)
(0.422995 -0.00263463 -3.13923e-05)
(0.536386 -0.000922777 -0.000736579)
(-0.000787687 0.000781061 5.18413e-05)
(0.425581 0.0040777 -6.39022e-05)
(0.53786 0.000262998 0.00117353)
(-0.000208911 0.000748656 -8.42328e-05)
(0.427096 0.0145859 -0.000170533)
(0.539852 0.000327219 0.00069356)
(-0.00470892 -2.3733e-05 -0.000144896)
(0.425334 0.0198425 -0.000256417)
(0.538179 -0.000566834 -0.000429489)
(-0.000933906 0.000357238 -5.68721e-05)
(0.425451 -0.00059421 2.3261e-06)
(0.536703 -0.000783908 -0.000658172)
(-0.00018312 0.00112529 -7.44503e-05)
(0.426493 -0.00257077 4.32988e-05)
(0.537252 0.00120213 0.00194643)
(0.00229636 0.000836886 0.00016412)
(0.42627 0.00112762 0.000148675)
(0.537521 0.00111055 0.00127034)
(0.00213513 0.000961585 0.000302366)
(0.426048 -0.0127055 0.000286194)
(0.536292 0.00112335 -0.00210083)
(-0.000140813 0.00110713 0.000161514)
(0.42546 -0.0109406 8.40831e-05)
(0.535952 0.00165277 -0.00106761)
(0.00333064 0.000277532 0.0001436)
(0.424712 0.000708205 0.000179846)
(0.536116 0.00133549 0.000639646)
(0.00380324 -0.000543624 0.00011659)
(0.423346 -0.00247807 0.000231804)
(0.53406 0.000119259 -0.000786332)
(0.00227059 -0.000158127 2.22796e-05)
(0.422158 -0.00695008 1.45506e-05)
(0.531053 -0.000307263 -0.000726854)
(0.00224157 -0.000232702 -7.79404e-06)
(0.42048 0.00216925 -0.000103222)
(0.52957 0.000316183 -0.000152413)
(0.00211613 -0.00125344 -4.01551e-05)
(0.418814 0.0160314 -0.000189622)
(0.5284 -0.00150724 0.000179293)
(0.00257655 -0.000597054 6.81957e-05)
(0.418771 0.00838722 -6.99157e-05)
(0.525719 -0.00203333 0.00141259)
(0.00227247 0.0005522 6.49199e-05)
(0.418489 0.00183593 0.000181021)
(0.524775 0.000126138 0.00199717)
(0.0023919 0.000165316 -1.90208e-05)
(0.417999 -0.00175823 -8.34894e-05)
(0.526292 0.000489842 0.000802057)
(0.00113218 -8.99815e-05 0.000142712)
(0.417384 -0.017388 0.000146336)
(0.525536 0.00010937 -0.000879948)
(-0.000648743 0.000944375 0.000166445)
(0.416 -0.0162751 0.000251791)
(0.522846 0.000598068 -0.00132455)
(0.00307616 0.00188573 5.37008e-05)
(0.415459 0.0057259 -7.76079e-06)
(0.521991 0.00174773 -8.67372e-06)
(0.0114757 0.00100874 8.19596e-06)
(0.416241 0.00884419 -9.26462e-05)
(0.522913 0.00186934 -0.000291544)
(0.0186132 -0.000526095 -9.43283e-05)
(0.418978 -0.00121875 2.54387e-05)
(0.525262 3.0228e-05 -0.000252928)
(0.0207715 -0.000428619 -6.59604e-05)
(0.421959 -0.00240786 3.06553e-07)
(0.527132 -0.00071534 0.00145096)
(0.0192737 0.000829505 0.000286765)
(0.421604 -0.00531793 6.87757e-05)
(0.525238 0.000613429 -0.000649815)
(0.0221929 0.00162935 0.000322514)
(0.420807 -0.00284983 0.000369377)
(0.523765 0.00180859 -0.00262254)
(0.0297306 0.000845542 -8.30899e-05)
(0.422735 0.00427039 0.000169163)
(0.526734 0.00183359 0.000594594)
(0.0278942 -0.000728367 -0.00022501)
(0.423327 0.00334023 -0.000146074)
(0.527679 -0.000104634 0.00307859)
(0.0190535 -0.000794518 -0.000200464)
(0.420807 -0.00654179 -9.1403e-05)
(0.523666 -0.00146423 0.000366968)
(0.0189115 0.000369879 -9.95696e-05)
(0.419305 0.000876633 -0.000196321)
(0.521521 -0.000577852 -0.00138364)
(0.0273709 0.000273702 2.27126e-05)
(0.420708 0.00469099 2.83391e-05)
(0.523833 0.000709763 0.00045051)
(0.0291223 -0.00034337 5.5567e-05)
(0.42236 -0.000753688 7.63986e-05)
(0.525366 -0.000329998 0.000232288)
(0.0271392 2.23571e-05 0.000135773)
(0.421782 -0.00860176 0.000167293)
(0.523755 -5.12572e-05 -0.000571538)
(0.0282521 0.000126761 8.76001e-05)
(0.420181 -0.000931312 0.000162007)
(0.521898 0.000350481 0.000659759)
(0.0273596 -0.000339931 -9.64361e-06)
(0.418639 0.00394972 -2.55987e-05)
(0.520566 -0.000191674 0.000920364)
(0.417128 0.00194763 1.01074e-05)
(0.5191 -0.00070843 0.000188187)
(0.26119 -0.0018684 -0.00398816)
(0.000608546 -0.00387272 -0.00176108)
(0.000608546 -0.00387272 -0.00176108)
(0.000608546 -0.00387272 -0.00176108)
(0.516142 -0.00260375 -9.71441e-05)
(-0.00199144 -0.00480211 -0.00200608)
(0.516142 -0.00260375 -9.71441e-05)
(-0.00199144 -0.00480211 -0.00200608)
(-0.00199144 -0.00480211 -0.00200608)
(-0.00199144 -0.00480211 -0.00200608)
(-0.00199144 -0.00480211 -0.00200608)
(-0.00199144 -0.00480211 -0.00200608)
(-0.00199144 -0.00480211 -0.00200608)
(-0.00199144 -0.00480211 -0.00200608)
(-0.00199144 -0.00480211 -0.00200608)
(-0.0197546 -0.00655915 -3.21513e-05)
(0.508759 -0.0242117 0.000102965)
(0.000608546 -0.00387272 -0.00176108)
(0.508759 -0.0242117 0.000102965)
(0.000608546 -0.00387272 -0.00176108)
(0.49536 -0.0113154 -0.00065336)
(-2.01889e-06 -0.00830746 -0.000681321)
(-2.01889e-06 -0.00830746 -0.000681321)
(0.000608546 -0.00387272 -0.00176108)
(0.000608546 -0.00387272 -0.00176108)
(0.000608546 -0.00387272 -0.00176108)
(0.000608546 -0.00387272 -0.00176108)
(-2.01889e-06 -0.00830746 -0.000681321)
(-2.01889e-06 -0.00830746 -0.000681321)
(-2.01889e-06 -0.00830746 -0.000681321)
(-2.01889e-06 -0.00830746 -0.000681321)
(0.440058 -0.0525962 -0.00154733)
(-0.055062 -0.0220527 -0.00359873)
(0.000608546 -0.00387272 -0.00176108)
(0.000608546 -0.00387272 -0.00176108)
(-0.055062 -0.0220527 -0.00359873)
(0.541962 -0.129128 0.0149163)
(-0.0991833 -0.146267 0.00957234)
(0.267895 -0.38961 -0.0142717)
(0.29266 0.0946854 0.0164808)
(0.7375 -0.228396 -0.0541894)
(0.00176785 0.196976 -0.0144176)
(0.309652 0.00720933 -0.017311)
(0.0788099 0.0346222 -0.013696)
(0.356831 0.0505124 -0.0296759)
(0.145194 0.0170503 -0.00664311)
(-0.0446716 0.000228278 -0.00261014)
(0.45179 0.0208822 -0.00178637)
(0.000608546 -0.00387272 -0.00176108)
(0.45179 0.0208822 -0.00178637)
(-0.0446716 0.000228278 -0.00261014)
(-0.0446716 0.000228278 -0.00261014)
(-0.0446716 0.000228278 -0.00261014)
(0.45179 0.0208822 -0.00178637)
(-0.0322187 -0.00501119 0.000596616)
(0.408245 0.00123184 0.000542146)
(0.508946 -0.00873401 0.0044873)
(-0.0279687 -0.00904756 -0.000170541)
(-0.0279687 -0.00904756 -0.000170541)
(-0.0279687 -0.00904756 -0.000170541)
(-0.0279687 -0.00904756 -0.000170541)
(-0.0212133 -0.00359709 9.64854e-05)
(0.416455 0.00692662 0.000169238)
(0.528354 -0.00694674 0.000151009)
(-0.0307195 -0.00161559 0.000211219)
(0.417677 0.0027444 0.000160031)
(0.530492 -0.00427816 -0.000619619)
(-0.0212201 -0.00154245 0.000278147)
(0.416721 0.00867261 -3.44348e-05)
(0.531097 -0.00163526 -0.000341869)
(-0.0151617 -0.00231993 0.000113823)
(0.419077 0.00210126 9.35273e-05)
(0.535208 -0.00308408 -0.00100429)
(-0.0166727 -0.00116203 -8.52312e-07)
(0.421659 -0.00105466 -6.42239e-06)
(0.536206 -0.00243454 0.000121829)
(-0.0146694 -0.000455345 3.02882e-05)
(0.421886 0.000725799 0.000280682)
(0.535242 -0.000540131 -0.000195102)
(-0.00546543 -7.7375e-05 -7.78521e-05)
(0.42347 0.00178899 4.19687e-05)
(0.536782 -0.000745646 0.00119171)
(0.00163729 0.000510622 -0.000286242)
(0.42632 -0.000241481 -0.000143375)
(0.538815 0.000230736 0.000956086)
(-0.00129016 -0.000213757 -0.00034269)
(0.426194 -0.00917383 -0.000347822)
(0.53847 0.000172564 8.21934e-05)
(-0.0106682 -0.000817502 -0.000109278)
(0.424587 -0.0126996 -6.0478e-05)
(0.537238 -0.00108023 0.00167846)
(-7.08923e-05 -2.30429e-05 0.000102484)
(0.426444 0.000650749 2.33582e-05)
(0.538702 -0.000917591 -0.000415198)
(0.000100982 0.000451366 0.000266391)
(0.427084 0.00680326 -1.33892e-05)
(0.538901 0.000502901 -0.00161373)
(-0.000764799 0.000136277 0.000270706)
(0.425878 -0.000455286 0.000164726)
(0.537556 0.00021947 -0.00126688)
(0.0030064 0.000171405 6.79762e-05)
(0.426092 0.00531037 0.000111416)
(0.537453 0.000106027 -0.000854307)
(0.00172282 0.000317008 0.000102385)
(0.425641 0.00192872 -8.6697e-05)
(0.536194 0.000473353 0.00176869)
(0.000795906 7.06363e-05 0.000268033)
(0.424406 0.0120409 0.000163578)
(0.534088 7.1523e-05 1.15549e-05)
(0.00234084 -0.000534948 0.000129833)
(0.422593 0.00831047 0.000194992)
(0.532057 -0.000320292 -0.000547539)
(0.00688304 -0.000154231 -0.000110914)
(0.422635 -0.000488608 6.87551e-05)
(0.531377 -0.000809903 0.00125135)
(0.00309711 0.000240755 -0.000285022)
(0.420972 0.00601757 -0.000171919)
(0.52855 0.000458055 0.000107941)
(-1.70734e-05 -4.21399e-05 -0.00021942)
(0.418461 -0.00753532 -0.000158338)
(0.526089 -0.000188516 0.00170083)
(0.0044045 0.00119273 4.28302e-05)
(0.420314 -0.0115412 0.00016218)
(0.528215 0.000205237 0.00105804)
(0.000714574 0.00212952 3.26944e-05)
(0.419653 -0.00764374 0.000141858)
(0.528055 0.00272451 -0.00121914)
(-0.00197325 0.000725498 8.17951e-05)
(0.416233 -0.0102824 -5.35218e-05)
(0.525762 0.00237991 -0.00119276)
(0.00203036 -0.000512655 0.000255382)
(0.41583 -0.00201916 0.000204147)
(0.524875 -3.97405e-06 -0.00186451)
(0.00529555 0.000328732 7.76657e-05)
(0.41705 -0.000752501 2.68039e-05)
(0.523655 -0.000293754 -0.000135136)
(0.0050246 0.00155289 -0.000154081)
(0.416988 0.00304271 -0.000162486)
(0.522601 0.00111454 0.00217702)
(0.00674528 0.00102433 -7.54401e-05)
(0.415583 0.0096734 -9.29143e-05)
(0.522095 0.00146769 0.00016766)
(0.0156738 -0.000538623 0.000120081)
(0.417028 0.00169733 0.000118322)
(0.523598 6.92725e-05 -0.00111792)
(0.0217635 -0.00101172 0.000135021)
(0.421368 -0.00162499 0.000229858)
(0.52635 -0.00116584 2.41592e-05)
(0.0216992 -5.62537e-05 0.000151294)
(0.422799 0.00202335 9.11425e-05)
(0.526543 -0.00077505 -0.000169694)
(0.0244302 0.000901641 0.000216087)
(0.422005 0.00792032 9.74972e-05)
(0.525449 0.000544195 -0.000662931)
(0.0264583 9.95939e-05 0.000106276)
(0.42173 0.005525 0.000137298)
(0.525427 0.00105177 0.00118585)
(0.0250835 -0.00131746 -1.24841e-05)
(0.421554 -0.00428896 3.86529e-05)
(0.525186 -0.000807797 0.00139914)
(0.0229368 -0.000634573 -8.72272e-05)
(0.42166 -0.0159236 7.37525e-06)
(0.524355 -0.0012904 -0.00120893)
(0.021637 0.00113932 -6.84806e-05)
(0.421519 -0.00814398 -0.000178925)
(0.523866 0.000649907 -0.000572125)
(0.0234688 0.0011397 8.20105e-05)
(0.420705 0.00429359 7.19706e-06)
(0.523926 0.0019155 0.00114759)
(0.0283101 0.000370104 0.000188097)
(0.421397 0.00286646 0.000231666)
(0.524697 0.000537248 -0.000431332)
(0.0293706 0.0010642 0.000193529)
(0.422648 -0.000699632 0.000207687)
(0.524284 0.000465219 -0.000862322)
(0.0290255 0.00178162 4.88656e-05)
(0.421074 0.0023187 0.000133903)
(0.522104 0.00182944 0.000967663)
(0.0256162 0.00105702 -5.85854e-06)
(0.417731 9.85416e-06 8.09685e-05)
(0.519777 0.00180888 0.000631353)
(0.415811 -0.0053852 0.000123216)
(0.518477 0.000482738 -0.000162046)
(0.260651 -0.00884297 -0.00420018)
(0.000608546 -0.00387272 -0.00176108)
(0.000608546 -0.00387272 -0.00176108)
(0.000608546 -0.00387272 -0.00176108)
(0.51392 -0.00641754 0.000151838)
(0.00126908 -0.00100668 -0.00204371)
(0.00126908 -0.00100668 -0.00204371)
(0.51392 -0.00641754 0.000151838)
(0.00126908 -0.00100668 -0.00204371)
(-0.0061421 0.00327646 0.000212122)
(0.506817 0.00554662 2.80912e-05)
(0.506817 0.00554662 2.80912e-05)
(0.000608546 -0.00387272 -0.00176108)
(0.000608546 -0.00387272 -0.00176108)
(-0.000678079 0.00972484 0.00107915)
(0.497053 0.0524291 0.000369855)
(0.000608546 -0.00387272 -0.00176108)
(0.000608546 -0.00387272 -0.00176108)
(0.497053 0.0524291 0.000369855)
(-0.000678079 0.00972484 0.00107915)
(-0.000678079 0.00972484 0.00107915)
(-0.000678079 0.00972484 0.00107915)
(0.431455 0.0489942 0.00162903)
(-0.0265341 0.0668965 0.000688973)
(0.470002 0.0208927 -0.000886096)
(0.493595 0.0511439 -0.000860423)
(0.0132763 0.0381677 0.000781874)
(0.431455 0.0489942 0.00162903)
(0.431455 0.0489942 0.00162903)
(0.431455 0.0489942 0.00162903)
(0.331084 0.0258747 0.00217824)
(-0.0104136 0.150105 -0.00428917)
(-0.0165891 0.246426 -0.00022041)
(0.464078 0.0257058 0.00352603)
(0.497726 0.214586 -0.0189224)
(-0.0193232 0.00523682 0.198417)
(0.374663 0.126422 -0.0235012)
(0.294636 0.0782104 -0.00485197)
(0.535277 -0.0223521 -0.00229347)
(0.0766983 -0.0230271 -0.00186668)
(-0.0216363 0.0153339 -0.000919896)
(0.435484 0.00250526 -0.000751821)
(0.000608546 -0.00387272 -0.00176108)
(0.435484 0.00250526 -0.000751821)
(0.000608546 -0.00387272 -0.00176108)
(-0.0252588 -0.013817 0.000114889)
(0.430744 0.000777355 -8.32711e-05)
(0.536605 -0.0232484 0.000727023)
(-0.0298116 -0.0314757 -3.9558e-05)
(-0.0298116 -0.0314757 -3.9558e-05)
(-0.0298116 -0.0314757 -3.9558e-05)
(-0.0298116 -0.0314757 -3.9558e-05)
(-0.026214 -0.00768371 0.000232786)
(0.424158 -0.0015852 0.000195134)
(0.53663 -0.0126217 -0.00255621)
(-0.0235841 -0.00420665 -8.55598e-05)
(0.422047 -0.00131181 -8.91229e-05)
(0.536905 -0.0075497 -0.00036964)
(-0.0291878 -0.00201417 -0.000219096)
(0.419478 -0.0053914 -3.12967e-05)
(0.534036 -0.00360999 0.00222199)
(-0.0189851 -0.00169897 -2.66858e-05)
(0.41948 0.000217976 3.8707e-05)
(0.533487 -0.00212259 0.000911433)
(-0.0144367 -0.00107264 0.000275018)
(0.422448 -0.000556883 5.29686e-05)
(0.536561 -0.00230791 -0.000471272)
(-0.0134254 0.000145575 0.000292439)
(0.423408 0.00213506 0.000344784)
(0.537108 -0.000661299 -0.0017997)
(-0.00766895 0.000668291 -2.34939e-05)
(0.424128 0.0022433 5.37765e-05)
(0.537354 0.000133864 6.67658e-05)
(-0.000964775 0.000160991 -0.000204888)
(0.425685 0.00343054 -6.79747e-05)
(0.539018 0.000598699 -0.000107745)
(-0.00631931 -0.00131704 -6.57024e-05)
(0.424338 -0.00207558 -5.64407e-05)
(0.538222 -0.000238094 -0.000657118)
(-0.00242167 -0.0011096 7.21316e-05)
(0.424845 -0.00614896 0.000170683)
(0.536825 -0.00147377 -0.000240063)
(0.00196589 -4.81688e-05 -9.25031e-05)
(0.427764 0.000870484 2.39656e-05)
(0.538683 -0.000101667 -0.00103537)
(-0.00266258 -0.000399458 -0.000115111)
(0.426649 0.000836502 -0.000410147)
(0.538674 -0.000264787 0.00166578)
(0.000427489 -0.000677388 5.45318e-06)
(0.425539 -2.87662e-05 8.29331e-05)
(0.53703 -0.000913114 0.000413551)
(0.00225644 -0.000711797 -4.31935e-05)
(0.426054 0.00476705 0.00017123)
(0.536611 -0.000846406 0.000420771)
(0.00506746 -0.000581191 -2.55836e-05)
(0.425814 -0.00126676 -2.59801e-05)
(0.535909 -0.00111553 0.00247132)
(0.000518591 -6.95324e-05 9.05273e-05)
(0.425056 0.00200775 2.36819e-05)
(0.53513 -0.000848999 -0.00170709)
(-0.00112449 -7.61428e-07 0.000133955)
(0.422688 0.00972339 7.44805e-05)
(0.532966 -0.000433157 -0.00110669)
(0.00899931 0.000371267 7.82535e-06)
(0.423104 0.00828754 -4.29897e-05)
(0.532029 -0.00046391 0.000604257)
(-0.000223505 0.00114706 -4.52393e-05)
(0.421937 -0.00475139 -4.14973e-05)
(0.530346 0.000995138 0.000647463)
(-0.000870193 0.00145407 0.000223162)
(0.418838 -0.0146715 0.000204519)
(0.528087 0.00202454 0.000745588)
(0.0060433 0.00172573 0.000261214)
(0.420641 -0.00267837 0.000329739)
(0.529356 0.00215382 -0.00227793)
(-0.000538501 0.00144502 5.57032e-05)
(0.419286 -0.00344698 -5.99621e-05)
(0.527478 0.00247341 -0.000686968)
(-0.00287337 0.000119373 6.87494e-05)
(0.414565 -0.00535248 6.12757e-05)
(0.522858 0.00151036 0.00153354)
(0.00284338 -0.000720789 -2.43753e-05)
(0.414777 0.00668793 0.000313727)
(0.522177 -0.000493344 -0.000252416)
(0.00931734 6.36945e-05 -0.000213289)
(0.418031 0.000166514 -0.00012399)
(0.524239 -0.000618496 0.00118841)
(0.00786136 0.00129782 -0.000101341)
(0.418533 -0.00173766 -0.000136661)
(0.524195 0.00089888 0.000800938)
(0.00348823 0.00115637 0.000100782)
(0.415411 0.00184066 -9.22755e-06)
(0.521617 0.00153426 -0.00146675)
(0.0125272 -0.000240697 0.000228064)
(0.415285 0.00290249 6.1775e-05)
(0.521978 0.000318616 -0.00124096)
(0.0232203 -0.00104187 0.000186022)
(0.420371 0.00264849 0.000215291)
(0.526076 -0.00125926 -0.000130711)
(0.0238688 -0.000482027 3.73434e-05)
(0.423505 0.010724 7.9222e-05)
(0.527376 -0.00137221 0.000348085)
(0.0237839 9.8864e-05 1.86963e-05)
(0.422735 0.00886544 -1.23862e-05)
(0.526052 -0.000310263 0.00104357)
(0.0215029 -0.000585612 6.97061e-05)
(0.420873 -0.00147248 7.3003e-05)
(0.52504 4.37417e-05 0.000766304)
(0.0227239 -0.00141924 5.85219e-05)
(0.420509 -0.00666857 0.000237708)
(0.524748 -0.000956653 -0.000884181)
(0.0269052 -0.000603712 -8.42654e-05)
(0.422672 -0.0117967 -1.58382e-05)
(0.525484 -0.000956052 -0.00103449)
(0.0258569 0.000758064 -0.000103304)
(0.423212 -0.00996729 -0.000149325)
(0.525523 0.000840125 0.00107348)
(0.0220625 0.000692821 0.000156784)
(0.420621 -0.00141804 6.27408e-05)
(0.523687 0.00137701 0.00109529)
(0.0275818 0.000172006 0.000251264)
(0.420749 0.001195 0.000315571)
(0.52355 0.000186423 -0.00120146)
(0.0322709 0.000974685 0.000148083)
(0.423653 0.00790705 9.4565e-05)
(0.525364 -5.85087e-05 -0.000669317)
(0.0278167 0.00186729 0.000166022)
(0.422191 0.0119927 4.97153e-05)
(0.523572 0.00153179 0.00101474)
(0.0227087 0.00129056 0.00021003)
(0.417009 0.00225981 0.000313602)
(0.518877 0.0019302 7.38218e-05)
(0.414199 -0.00942817 0.000281959)
(0.516235 0.000873069 -0.000461759)
(-0.00410733 0.00280798 -0.00191787)
(0.260827 0.00902576 -0.00363041)
(0.266016 0.00315264 -0.0012316)
(-0.00410733 0.00280798 -0.00191787)
(-0.00410733 0.00280798 -0.00191787)
(-0.00410733 0.00280798 -0.00191787)
(0.260827 0.00902576 -0.00363041)
(0.260827 0.00902576 -0.00363041)
(0.260827 0.00902576 -0.00363041)
(0.266016 0.00315264 -0.0012316)
(0.266016 0.00315264 -0.0012316)
(0.266016 0.00315264 -0.0012316)
(0.261172 -0.000176165 -0.00423546)
(0.261172 -0.000176165 -0.00423546)
(0.261172 -0.000176165 -0.00423546)
(0.261172 -0.000176165 -0.00423546)
(0.519216 -0.00437206 0.000275381)
(-0.00410733 0.00280798 -0.00191787)
(-0.00410733 0.00280798 -0.00191787)
(0.519216 -0.00437206 0.000275381)
(0.515151 0.00547741 0.000264121)
(0.00510493 0.00447189 0.000327384)
(0.515151 0.00547741 0.000264121)
(0.00510493 0.00447189 0.000327384)
(0.00510493 0.00447189 0.000327384)
(0.00510493 0.00447189 0.000327384)
(0.00510493 0.00447189 0.000327384)
(0.00510493 0.00447189 0.000327384)
(0.519148 -0.00297899 0.00117063)
(0.000608546 -0.00387272 -0.00176108)
(0.519148 -0.00297899 0.00117063)
(-0.0107183 0.00806615 0.000355299)
(0.519148 -0.00297899 0.00117063)
(0.480063 0.0610043 -0.000935805)
(-0.0258332 0.0159525 -0.000383797)
(0.019921 0.00739354 0.000182905)
(0.49272 -0.0803876 -0.000518056)
(0.49272 -0.0803876 -0.000518056)
(0.49272 -0.0803876 -0.000518056)
(0.49272 -0.0803876 -0.000518056)
(0.518251 0.00916915 0.016583)
(0.518251 0.00916915 0.016583)
(0.518251 0.00916915 0.016583)
(0.518251 0.00916915 0.016583)
(0.277245 0.0429157 0.0224993)
(0.296562 0.0615843 0.038064)
(-0.315013 0.062472 0.020588)
(0.314173 -0.0998679 0.0253884)
(0.303115 0.108095 0.0813864)
(-0.143264 0.0510305 0.0482812)
(0.0961642 0.0555017 -0.0276085)
(0.318323 -0.00939957 -0.00220603)
(0.459002 -0.124837 0.000535323)
(0.00468753 0.00910271 0.0280091)
(-0.162989 0.0134255 0.0164122)
(-0.0384367 0.0141589 0.0185031)
(0.435277 0.0307122 0.0551613)
(0.133164 0.0232118 -0.000788052)
(0.357306 0.022963 8.713e-05)
(-0.0280161 -0.0365711 -0.000971663)
(-0.0479377 -0.0345521 -0.0013387)
(-0.0487647 -0.0685792 -0.00366536)
(-0.0262858 -0.0273727 -0.000613402)
(-0.0325648 -0.0385995 -0.00116713)
(0.439642 -0.00188142 0.000340417)
(0.000608546 -0.00387272 -0.00176108)
(0.439642 -0.00188142 0.000340417)
(0.000608546 -0.00387272 -0.00176108)
(-0.0281265 -0.00988031 -3.11727e-06)
(0.442072 -0.00332066 -0.000225633)
(0.565868 -0.0155804 -0.00168951)
(-0.0267705 -0.0189773 0.000296843)
(-0.0267705 -0.0189773 0.000296843)
(-0.0267705 -0.0189773 0.000296843)
(-0.0267705 -0.0189773 0.000296843)
(-0.0259303 -0.00591639 -0.000126682)
(0.42913 0.00160875 0.000124837)
(0.548071 -0.00901761 0.00223737)
(-0.0285062 -0.00427346 -3.48786e-05)
(0.42411 -0.00162437 -0.000143511)
(0.541815 -0.00540095 0.00157568)
(-0.0224163 -0.00244521 0.000226484)
(0.421773 0.000932629 0.000273786)
(0.537923 -0.00434369 -0.00263959)
(-0.0199384 -0.000774321 0.000118357)
(0.421567 -0.00653147 0.000264276)
(0.536856 -0.00107697 -0.00158949)
(-0.0111004 -0.000163531 0.00012264)
(0.423214 0.000807436 -8.68416e-05)
(0.538044 -0.000960216 0.000917574)
(-0.0132722 0.000551711 0.000106215)
(0.424306 0.0090984 0.000127906)
(0.538294 -3.54023e-05 0.000585989)
(-0.00628214 0.00117821 9.33505e-06)
(0.424919 0.00828291 4.88868e-05)
(0.538366 0.000399131 0.000397128)
(-0.00736207 0.00070804 8.04691e-05)
(0.425095 0.00239061 3.84599e-05)
(0.538348 0.00138675 -1.60202e-05)
(-0.00981425 -0.000836107 0.000179872)
(0.422406 0.00198036 0.000146475)
(0.535858 -0.000149168 0.000175699)
(0.00338731 -0.00052221 0.000122564)
(0.425237 0.000287775 4.94078e-05)
(0.537401 -0.00119992 -0.00122979)
(0.00284917 0.000213603 -0.000293539)
(0.428681 -0.0145 7.27134e-05)
(0.540199 0.0006949 0.00114637)
(-0.00403558 -0.000192783 -0.00021226)
(0.42614 -0.000576828 -0.000369675)
(0.537899 3.60264e-05 0.00301461)
(0.0020989 -0.000209197 0.000248681)
(0.42552 -0.0047082 0.000176649)
(0.536846 -0.000380025 -0.00206962)
(0.00207009 0.000242884 0.000188506)
(0.426621 -0.000394665 0.000228015)
(0.537212 -0.000165361 -0.0016893)
(0.00654341 0.000664488 2.32695e-05)
(0.426346 0.00699009 -0.000154542)
(0.536215 0.000247784 0.00106582)
(0.00260927 0.000857151 7.61895e-06)
(0.425301 -0.000436943 1.87897e-05)
(0.534962 0.000656204 -0.00110823)
(-0.00226301 0.000903785 -0.000102427)
(0.42275 0.00454354 -1.44131e-05)
(0.532561 0.000421824 0.000473331)
(0.00480378 0.000543599 -9.23128e-05)
(0.422659 0.00336819 -0.000120344)
(0.533173 0.00057771 0.00253782)