/*--------------------------------*- C++ -*----------------------------------*\
| =========                 |                                                 |
| \\      /  F ield         | OpenFOAM: The Open Source CFD Toolbox           |
|  \\    /   O peration     | Version:  5.0                                   |
|   \\  /    A nd           | Web:      www.OpenFOAM.org                      |
|    \\/     M anipulation  |                                                 |
\*---------------------------------------------------------------------------*/
FoamFile
{
    version     2.0;
    format      ascii;
    class       volScalarField;
    location    "3.5";
    object      p_rgh;
}
// * * * * * * * * * * * * * * * * * * * * * * * * * * * * * * * * * * * * * //

dimensions      [1 -1 -2 0 0 0 0];

internalField   nonuniform List<scalar> 
9046
(
98.496
98.4361
96.024
139.798
98.2048
98.739
95.9444
91.877
89.1212
86.4846
83.9138
81.3906
78.9011
76.463
74.0445
71.6562
69.2883
66.9547
64.6447
62.3592
60.0839
57.8267
55.6017
53.3692
51.1616
48.9741
46.7936
44.6104
42.4475
40.3094
38.1669
36.0503
33.9633
31.8698
29.7663
27.696
25.6799
23.6982
21.7253
19.7462
17.7949
15.888
13.9857
12.0552
10.1527
8.29726
6.4455
4.58543
2.74686
0.918419
92.759
94.467
98.2668
98.1341
106.686
98.0514
98.2119
93.4575
89.5661
86.8594
84.1572
81.5505
79.0248
76.5381
74.0861
71.6901
69.3047
66.9795
64.673
62.3673
60.0906
57.8316
55.597
53.3714
51.1524
48.9595
46.7828
44.6119
42.454
40.3115
38.1823
36.0644
33.9599
31.8587
29.7676
27.7022
25.6752
23.6827
21.7075
19.7463
17.8012
15.8926
13.9924
12.0737
10.1601
8.2881
6.43223
4.58238
2.74727
0.918117
94.1569
95.0373
80.7348
110.985
100.469
101.128
99.5485
94.2349
89.9294
87.0754
84.2994
81.6284
79.0604
76.5678
74.1105
71.6918
69.325
67.0033
64.6914
62.3678
60.0938
57.8339
55.584
53.3635
51.1544
48.9539
46.7709
44.6177
42.4642
40.3127
38.1863
36.0634
33.9408
31.8491
29.779
27.7179
25.6752
23.6736
21.7047
19.7482
17.8127
15.8965
13.9829
12.0738
10.1702
8.28505
6.42639
4.58375
2.74991
0.918076
72.8998
102.446
100.983
98.8424
98.4347
102.992
99.3308
95.0828
89.8922
87.0493
84.2748
81.6362
79.0512
76.5525
74.1071
71.6939
69.3246
66.9967
64.6695
62.3705
60.1021
57.8334
55.5896
53.3667
51.1656
48.9642
46.7704
44.623
42.4582
40.3035
38.1863
36.0579
33.9348
31.8435
29.7857
27.7346
25.6821
23.6706
21.7053
19.7542
17.8167
15.8831
13.9624
12.0661
10.1783
8.28825
6.42746
4.59119
2.75627
0.91323
99.9195
102.168
104.616
98.4697
100.143
98.9343
97.9197
94.9228
89.4487
86.7592
84.0812
81.4948
78.9759
76.5018
74.0846
71.6835
69.3249
66.9809
64.6443
62.3667
60.1032
57.8312
55.593
53.3695
51.1741
48.9775
46.78
44.6182
42.4464
40.2971
38.1803
36.0494
33.9313
31.8418
29.7863
27.7437
25.6916
23.6751
21.7099
19.7648
17.8154
15.8675
13.9384
12.0546
10.1756
8.2895
6.43446
4.60585
2.76508
0.911358
100.262
110.388
99.9232
99.5364
97.9348
104.416
96.5977
94.1138
88.7047
86.2909
83.7854
81.3108
78.864
76.4369
74.0514
71.6663
69.3181
66.9751
64.636
62.3577
60.0984
57.8272
55.5947
53.3799
51.1802
48.9949
46.7911
44.6126
42.4375
40.2835
38.1711
36.0434
33.9243
31.8439
29.7899
27.7456
25.7016
23.6839
21.7124
19.7646
17.8081
15.8477
13.9247
12.0409
10.1677
8.29285
6.45051
4.6289
2.77555
0.914566
86.2123
56.4844
118.197
111.237
103.339
96.0919
94.1869
91.6211
87.8873
85.7702
83.4908
81.1363
78.7734
76.3848
74.0077
71.6406
69.3015
66.9728
64.6328
62.3412
60.0837
57.8251
55.5918
53.3876
51.1852
48.9899
46.7964
44.6087
42.4383
40.2967
38.1699
36.0327
33.9178
31.8502
29.7931
27.7396
25.7072
23.698
21.7141
19.755
17.8005
15.8472
13.9238
12.0404
10.1645
8.29448
6.45631
4.62859
2.77901
0.922589
92.0358
97.2228
98.8782
108.406
91.2359
84.0487
90.2195
89.3263
87.3896
85.5045
83.3226
81.037
78.7131
76.3472
73.9655
71.6293
69.2837
66.9554
64.6439
62.3347
60.0736
57.82
55.5903
53.3889
51.1854
48.9946
46.7977
44.6066
42.4534
40.3055
38.166
36.0295
33.9213
31.8569
29.7912
27.7286
25.7071
23.7087
21.7191
19.7489
17.7955
15.8529
13.9339
12.0436
10.1623
8.29645
6.45479
4.6179
2.77778
0.927921
96.2931
98.3563
100.241
99.8707
92.5113
91.4044
91.0001
89.6856
87.6404
85.6356
83.3943
81.0824
78.7287
76.3523
73.9781
71.6301
69.2663
66.9421
64.637
62.3426
60.0664
57.8132
55.5949
53.3842
51.1867
48.9951
46.7936
44.6059
42.4454
40.3029
38.1552
36.0303
33.942
31.8624
29.7843
27.7209
25.7016
23.7118
21.7229
19.7471
17.7932
15.8656
13.9537
12.0455
10.1593
8.29824
6.44781
4.60714
2.76693
0.928652
104.553
100.019
98.9521
98.8696
98.4371
95.6196
93.9566
90.7623
88.415
86.0273
83.6321
81.212
78.7877
76.398
74.0063
71.6337
69.2738
66.9455
64.635
62.3491
60.0696
57.8179
55.5994
53.3741
51.1763
48.9919
46.7985
44.6085
42.4432
40.3043
38.158
36.0372
33.957
31.8694
29.7714
27.7013
25.6879
23.7073
21.7256
19.7456
17.7935
15.8772
13.9699
12.0475
10.1528
8.3014
6.45081
4.59555
2.75224
0.918463
98.6185
97.7518
96.9755
97.5028
108.823
98.3244
95.838
91.8778
89.1211
86.4846
83.9138
81.3907
78.9009
76.4631
74.0445
71.656
69.2883
66.9548
64.6448
62.3589
60.0839
57.8268
55.6017
53.3691
51.1616
48.9742
46.7935
44.6104
42.4471
40.3094
38.1668
36.0504
33.9633
31.8697
29.7662
27.696
25.6798
23.6982
21.7253
19.746
17.7948
15.8881
13.9859
12.0553
10.1527
8.29727
6.44544
4.58541
2.74681
0.918491
127.052
106.648
99.6368
98.8696
97.1091
99.06
98.1233
93.4575
89.5666
86.8592
84.1572
81.5505
79.0247
76.5381
74.0861
71.69
69.3046
66.9797
64.6728
62.3672
60.0906
57.8317
55.5966
53.3713
51.1524
48.9594
46.7827
44.6119
42.454
40.3115
38.1828
36.0645
33.9599
31.8587
29.7676
27.7021
25.6752
23.6827
21.7074
19.7456
17.8012
15.8927
13.9925
12.0734
10.1601
8.28813
6.43213
4.5825
2.74746
0.918069
102.906
89.6754
95.7851
94.1268
95.7325
101.902
99.5477
94.2343
89.931
87.0752
84.2994
81.6284
79.0604
76.5677
74.1105
71.6918
69.325
67.0033
64.6915
62.3677
60.0936
57.8339
55.5838
53.3636
51.1544
48.9537
46.7709
44.6177
42.4643
40.3128
38.186
36.0633
33.9409
31.8492
29.7791
27.7179
25.6751
23.6736
21.7047
19.7482
17.8128
15.8967
13.9829
12.0737
10.1702
8.28488
6.42618
4.58379
2.74992
0.918062
133.758
102.972
109.313
98.9976
97.2203
103.328
99.3019
95.0725
89.8928
87.049
84.2748
81.6361
79.0512
76.5525
74.1071
71.6939
69.3245
66.9965
64.6695
62.3704
60.1021
57.8334
55.5895
53.3668
51.1653
48.964
46.7705
44.6231
42.4583
40.3034
38.1863
36.0579
33.9347
31.8435
29.7857
27.7346
25.682
23.6706
21.7053
19.7543
17.8167
15.8828
13.9623
12.0661
10.1783
8.28824
6.42736
4.59119
2.75625
0.913094
101.362
103.444
106.413
98.5524
105.831
98.8045
97.9175
94.8076
89.4492
86.7592
84.0813
81.4943
78.9758
76.5018
74.0847
71.6835
69.3248
66.9809
64.644
62.3668
60.1032
57.8312
55.593
53.3696
51.174
48.9776
46.7801
44.6182
42.4459
40.297
38.1804
36.0494
33.9313
31.8418
29.7864
27.7436
25.6916
23.6751
21.7099
19.7648
17.8153
15.8675
13.9383
12.0548
10.1756
8.28948
6.43438
4.60576
2.76507
0.911405
101.506
99.5314
99.599
99.1059
97.3083
106.036
96.5524
93.9997
88.7051
86.2909
83.7854
81.3106
78.8642
76.4369
74.0514
71.6663
69.3181
66.9751
64.6359
62.3577
60.0985
57.8271
55.5946
53.3799
51.1804
48.995
46.791
44.6124
42.4375
40.2836
38.1711
36.0433
33.9242
31.8439
29.7899
27.7455
25.7017
23.6838
21.7124
19.7647
17.8081
15.8477
13.9247
12.0409
10.1676
8.29283
6.45049
4.62892
2.77528
0.914542
108.725
130.595
103.661
97.4224
102.691
96.0543
94.1956
91.5375
87.8876
85.7701
83.4908
81.1363
78.7733
76.3848
74.0077
71.6405
69.3014
66.9727
64.6327
62.3413
60.0836
57.8251
55.5918
53.3876
51.1849
48.9898
46.7963
44.6088
42.4384
40.2966
38.1701
36.0326
33.9177
31.8502
29.7931
27.7395
25.7071
23.6979
21.7141
19.7551
17.8005
15.8471
13.9239
12.0406
10.1643
8.29447
6.45641
4.62868
2.77894
0.922702
94.9402
98.6116
104.404
110.325
85.7694
91.6916
90.1612
89.3181
87.39
85.5042
83.3226
81.037
78.713
76.3472
73.9654
71.6293
69.284
66.9552
64.644
62.3346
60.0736
57.82
55.5903
53.3888
51.1853
48.9948
46.7981
44.6065
42.4532
40.3055
38.166
36.0294
33.9213
31.8569
29.7911
27.7286
25.7071
23.7087
21.7191
19.7488
17.7954
15.853
13.934
12.0436
10.1622
8.29643
6.45479
4.61788
2.77772
0.927907
91.8934
98.7628
103.976
100.033
91.8423
92.3929
91.0122
89.6826
87.6409
85.6354
83.3943
81.0824
78.7286
76.3522
73.9781
71.6303
69.2665
66.942
64.637
62.3427
60.0664
57.8132
55.5949
53.3841
51.1866
48.995
46.7934
44.6058
42.4454
40.303
38.1553
36.0303
33.9424
31.8624
29.7843
27.7209
25.7015
23.7117
21.7228
19.7471
17.7932
15.8657
13.9536
12.0454
10.1593
8.2982
6.44777
4.60711
2.767
0.92865
99.8894
101.509
99.0421
98.672
102.367
95.9326
93.868
90.7626
88.4149
86.0273
83.6322
81.2119
78.7876
76.398
74.0063
71.634
69.2737
66.9455
64.6351
62.349
60.0694
57.8179
55.5994
53.3741
51.1762
48.9919
46.7983
44.6086
42.4433
40.3042
38.1578
36.0372
33.9572
31.8693
29.7714
27.7015
25.688
23.7072
21.7256
19.7456
17.7935
15.8772
13.9699
12.0474
10.1527
8.30142
6.45067
4.59552
2.75224
0.918453
98.3796
98.158
99.072
97.595
107.613
100.317
95.8367
91.8774
89.1211
86.4845
83.9142
81.3906
78.9006
76.4631
74.0444
71.6557
69.2882
66.9548
64.6449
62.3586
60.0837
57.8268
55.6016
53.3689
51.1616
48.9741
46.7933
44.6103
42.447
40.3095
38.1669
36.0504
33.9633
31.8695
29.7661
27.6959
25.6798
23.6981
21.7253
19.7459
17.7946
15.8881
13.9858
12.0554
10.1527
8.29756
6.44534
4.58533
2.74671
0.918446
100.195
91.7069
95.4928
100.025
100.956
100.38
98.1366
93.4578
89.5659
86.8592
84.1571
81.5504
79.0247
76.538
74.086
71.6898
69.3046
66.9798
64.6727
62.367
60.0913
57.8317
55.5958
53.3712
51.1526
48.9592
46.7826
44.6118
42.4541
40.3115
38.1828
36.0644
33.9598
31.8587
29.7675
27.7021
25.6751
23.6831
21.7073
19.7456
17.8011
15.8927
13.9923
12.073
10.1602
8.28812
6.43205
4.58243
2.74755
0.91788
89.1027
77.7571
90.7639
101.295
112.968
102.376
99.5461
94.2354
89.9307
87.0752
84.2993
81.6283
79.0603
76.5677
74.1104
71.6917
69.3249
67.003
64.6914
62.3676
60.0934
57.8338
55.5838
53.3641
51.1544
48.9536
46.7709
44.6176
42.4642
40.3127
38.1859
36.0629
33.9409
31.8493
29.7791
27.7179
25.6749
23.6736
21.7046
19.748
17.8128
15.8967
13.9829
12.0733
10.1705
8.28478
6.42608
4.58375
2.74989
0.917826
99.5656
101.626
104.34
98.926
100.091
103.299
99.2926
95.0762
89.8921
87.0484
84.2746
81.636
79.0511
76.5524
74.107
71.6938
69.3245
66.9963
64.6694
62.3702
60.1022
57.8333
55.5895
53.3669
51.1651
48.9637
46.7706
44.623
42.4583
40.3033
38.1862
36.0579
33.9346
31.8434
29.7856
27.7346
25.6819
23.6706
21.7053
19.7543
17.8166
15.8827
13.9623
12.0661
10.1784
8.28816
6.42726
4.59116
2.75616
0.912769
100.352
103.004
107.229
98.4092
100.733
99.3645
97.9152
94.8144
89.4482
86.7596
84.0812
81.4938
78.9753
76.5017
74.0847
71.6837
69.3247
66.9808
64.6438
62.3668
60.1032
57.8308
55.593
53.3696
51.1737
48.9776
46.7802
44.6181
42.4457
40.2969
38.1804
36.0494
33.9313
31.8417
29.7864
27.7436
25.6918
23.6751
21.7098
19.7651
17.8152
15.8676
13.9383
12.055
10.1757
8.28942
6.43452
4.60567
2.76506
0.911317
118.794
107.865
97.6705
108.472
96.991
95.9268
96.5487
94.0113
88.7042
86.2911
83.7851
81.3105
78.8644
76.4368
74.0512
71.6662
69.318
66.9752
64.6357
62.3577
60.0986
57.8271
55.5944
53.3799
51.1804
48.9949
46.7909
44.6123
42.4374
40.2841
38.1713
36.043
33.924
31.8438
29.7898
27.7454
25.7016
23.6838
21.7123
19.7647
17.8078
15.8476
13.9247
12.0409
10.1674
8.29276
6.45051
4.62891
2.77485
0.914497
84.9703
102.72
100.436
93.0603
100.468
95.7082
94.152
91.5399
87.8873
85.7702
83.4907
81.1362
78.7732
76.3847
74.0076
71.6405
69.3014
66.9725
64.6326
62.3413
60.0838
57.825
55.5918
53.3875
51.1847
48.9898
46.7962
44.609
42.4387
40.2967
38.17
36.0325
33.9176
31.8502
29.793
27.7393
25.7071
23.6979
21.714
19.755
17.8005
15.8467
13.924
12.0405
10.1642
8.2944
6.4567
4.62838
2.77843
0.922671
92.6909
95.45
117.446
108.124
92.2519
90.7777
90.1714
89.32
87.3899
85.5043
83.3225
81.0369
78.713
76.3471
73.9652
71.6292
69.2842
66.9549
64.6441
62.3347
60.0735
57.8201
55.5904
53.3888
51.1852
48.9949
46.798
44.6064
42.4532
40.3054
38.1658
36.0293
33.9213
31.8569
29.791
27.7286
25.7071
23.7085
21.7191
19.7488
17.7953
15.853
13.9342
12.0435
10.1621
8.29636
6.45474
4.61783
2.77771
0.927769
93.9178
96.7501
100.47
100.573
98.5263
90.6039
91.0068
89.6824
87.6408
85.6355
83.3942
81.0823
78.7286
76.3521
73.978
71.6305
69.2666
66.9419
64.6372
62.3426
60.0663
57.8131
55.5948
53.3841
51.1864
48.9949
46.7933
44.6057
42.4454
40.303
38.1551
36.0301
33.9424
31.8623
29.7841
27.7209
25.7015
23.7115
21.7227
19.747
17.7933
15.8658
13.9536
12.0452
10.1592
8.29813
6.44765
4.60704
2.76718
0.92856
99.8209
97.8272
98.8453
99.0372
100.923
95.906
93.8805
90.7626
88.4149
86.0272
83.6322
81.2118
78.7873
76.398
74.0062
71.6342
69.2737
66.9454
64.6352
62.3489
60.0691
57.8177
55.5993
53.3741
51.1762
48.9918
46.7982
44.6086
42.4432
40.3041
38.1577
36.0374
33.9576
31.8692
29.7713
27.7016
25.6879
23.7072
21.7255
19.7455
17.7934
15.8772
13.9698
12.0473
10.1527
8.30137
6.45048
4.59544
2.75225
0.918387
96.7109
99.9999
98.1264
98.3215
96.7244
99.5313
98.189
98.2873
111.366
99.5233
99.09
98.2998
113.193
99.5222
100.021
103.968
99.9122
101.374
100.027
103.559
99.8807
99.6148
94.299
98.1695
103.054
99.582
92.9431
98.1569
98.2609
99.2244
97.5299
98.7975
98.2678
99.1504
97.5391
97.3071
96.5438
94.8949
105.069
97.2915
96.5044
94.8838
94.0187
87.3563
90.3054
96.1753
94.2486
87.9058
90.3136
89.5667
88.5855
89.5727
103.56
89.5562
88.3003
89.5822
90.8457
93.8965
93.2359
91.3494
90.8502
94.8278
93.2468
93.9297
97.5621
96.3007
95.3525
93.9411
97.612
96.3191
96.7274
99.7142
98.1879
98.0007
96.7366
100.202
98.1818
98.3017
99.1024
99.5178
101.738
98.2979
99.7038
99.5162
100.032
103.198
99.9388
102.109
100.005
102.038
99.8621
99.6517
93.0907
98.1595
102.753
99.6286
90.8397
98.1421
98.2423
99.1085
97.4965
99.2107
98.2409
99.013
97.5802
97.2907
96.4867
95.0316
95.038
97.3225
96.5004
94.9341
94.316
88.089
90.2925
95.7842
94.1205
87.5038
90.2942
89.557
88.1478
89.5717
90.9854
89.5574
87.7533
89.5737
90.8586
93.9671
93.2456
92.3757
90.8545
93.6207
93.24
93.946
97.9947
96.3208
95.8266
93.947
98.4334
96.3274
96.7343
99.0328
98.1829
99.9922
96.6939
99.6112
98.1351
98.2966
99.7089
99.5193
101.246
98.2879
100.206
99.5138
100.019
101.891
99.9707
103.045
100.034
101.719
99.9299
99.6439
116.999
98.1622
104.054
99.6308
122.981
98.1532
98.213
98.9991
97.4557
99.9112
98.2817
98.9524
97.6271
97.2579
96.4238
94.895
95.0587
97.3637
96.3216
94.8741
94.1423
87.3729
90.322
96.0025
93.9768
87.3751
90.3038
89.5834
87.0756
89.5805
90.8443
89.5943
86.4506
89.5862
90.8741
93.6229
93.2363
90.5415
90.8451
94.3437
93.2195
93.9423
97.8132
96.3244
95.8442
93.9243
98.2766
96.302
96.3774
103.651
100.491
97.8403
94.6295
100.542
99.098
97.9513
96.9756
106.988
98.1409
104.96
98.4151
96.9658
93.8452
97.8974
94.753
95.8426
93.8546
97.7316
94.7626
98.108
84.6396
107.349
111.331
98.5083
89.1987
102.979
98.5807
98.836
101.919
98.7639
98.8279
103.356
98.958
95.3598
99.1397
95.7611
98.1325
95.3584
99.1628
95.7736
103.534
103.471
106.589
104.602
97.9802
101.895
105.818
101.096
101.115
102.182
101.695
101.26
102.425
101.302
95.8876
99.4477
96.3773
99.5509
95.8947
99.3911
96.2984
93.7365
102.472
100.828
96.8941
92.6142
103.369
100.647
97.3335
101.062
98.8514
103.189
100.76
97.2959
98.641
96.7677
98.3712
97.253
99.326
96.6502
98.3265
97.2593
101.47
103.557
103.408
111.07
100.641
103.48
101.016
98.6625
98.5272
100.126
98.9064
98.5303
100.186
98.6932
97.306
97.3517
96.4548
97.9246
97.3339
97.3191
96.4868
97.4724
98.8329
98.7932
98.9313
123.926
99.0012
98.2048
98.6216
98.9039
98.7347
104.519
98.8984
101.034
97.7104
96.0979
95.247
94.4067
96.5483
96.1322
95.2219
94.431
99.6054
90.8266
80.7755
103.079
98.4186
92.1499
74.9594
92.5052
94.6591
94.5063
96.0777
94.4865
94.3451
92.6127
93.4455
90.9654
90.7653
94.169
93.4573
90.9639
90.6474
86.7942
70.7748
76.6139
90.5097
97.2819
69.6464
76.8831
88.5588
87.8913
89.7356
84.2642
88.0921
88.6135
88.9199
90.0807
90.1444
89.7326
90.1872
89.9816
90.145
89.7329
93.5287
98.4535
94.7355
91.968
93.2347
96.5245
94.804
91.8618
90.6156
96.549
91.4763
90.6088
94.6397
91.5282
90.0954
93.0053
91.3146
91.0061
90.1017
92.9797
91.3123
97.0381
96.8924
95.9877
97.4982
96.5986
97.4059
95.6274
95.0659
94.3039
95.5994
95.3088
94.3287
95.6128
95.1218
92.2531
95.4921
93.1527
93.8761
92.2611
95.3789
93.1616
95.2684
103.705
101.066
108.317
99.0838
97.13
95.8952
97.9492
96.9285
108.441
98.2801
99.1102
104.104
96.9368
93.8538
97.7219
94.7616
95.8278
93.8537
97.7452
94.761
104.532
124.848
102.699
97.2953
98.0623
98.813
96.7338
99.3464
98.8336
102.587
105.053
99.2461
98.8695
102.867
95.3573
99.1664
95.7717
98.1365
95.3574
99.1424
95.7701
104.936
101.477
106.48
101.841
103.839
100.564
102.6
101.499
100.574
103.131
102.414
101.548
100.741
103.716
95.8908
99.4291
96.2915
99.5432
95.8907
99.3891
96.2919
94.8648
103.784
101.041
101.264
95.8325
103.933
101.945
97.8281
100.757
101.793
103.682
97.849
100.796
101.765
96.6378
98.3874
97.259
99.3073
96.6359
98.319
97.26
101.865
103.61
101.511
100.528
101.194
103.67
103.669
98.6218
98.5057
99.8247
98.9077
98.611
98.5146
99.9106
97.3393
97.3519
96.4919
97.9158
97.3401
97.3407
96.4911
108.253
99.5239
98.1043
96.9648
101.173
102.361
97.9259
97.1086
98.9175
99.9219
110.79
97.1128
98.8927
104.867
96.1432
95.2271
94.4375
96.579
96.1338
95.2558
94.4352
98.4951
95.1166
86.8813
105.18
101.441
92.5725
83.9012
92.7131
94.6131
93.4911
96.0507
92.6823
94.5951
93.6317
93.4573
90.9696
90.6394
94.1168
93.4575
90.9654
90.6372
74.9516
68.1821
78.5243
85.4966
106.48
141.459
150.488
88.0416
87.5806
89.0015
90.2823
88.8371
87.5798
88.9876
89.9756
90.143
89.7286
90.1764
89.9768
90.1431
89.7285
99.1893
96.485
95.3484
94.9312
101.923
96.469
95.5489
92.7306
90.6125
95.9667
90.8256
91.7791
90.6261
97.011
90.0985
92.9754
91.3105
91.0118
90.097
92.9815
91.3103
96.9325
97.8943
96.5843
101.269
96.1549
99.4712
99.8752
95.0204
94.1654
95.4692
95.4216
95.0248
94.209
95.4469
92.2598
95.3711
93.1612
93.8685
92.2595
95.3652
93.1614
98.8223
97.3971
96.2632
98.2546
99.2561
95.7655
98.36
98.5897
96.9413
103.464
99.8502
98.0416
103.462
96.9727
93.8545
97.7639
94.7615
95.9431
93.845
97.9267
94.7518
106.628
117.087
96.8309
98.0013
101.755
109.266
99.9267
99.2328
98.864
101.529
102.899
98.8064
99.4991
101.394
95.3582
99.1353
95.7716
98.2172
95.3588
99.13
95.7611
109.126
99.8937
103.693
102.939
106.499
101.644
105.373
101.423
100.632
103.106
102.493
101.42
100.67
102.501
95.8946
99.4423
96.2975
99.541
95.8876
99.4559
96.3759
131.083
100.695
101.132
96.4865
126.229
105.273
114.829
104.134
101.018
102.208
103.598
99.9622
101.719
106.068
96.6461
98.3773
97.2565
99.3536
96.7728
98.3621
97.2541
100.983
104.655
102.984
104.533
106.145
103.733
106.36
98.6501
98.5756
100.269
103.321
98.6721
98.5834
102.083
97.3355
97.3208
96.4877
97.9188
97.3063
97.3795
96.4552
104.883
123.765
100.455
99.7126
118.295
102.805
98.9852
97.2571
98.8829
102.24
96.3194
97.2497
98.9163
98.0343
96.1293
95.2235
94.4309
96.5852
96.0995
95.2357
94.4061
100.163
89.7975
82.8254
96.9751
103.484
95.4874
82.3912
92.8702
94.6181
92.4214
95.5776
92.6859
94.625
93.6974
93.4545
90.9769
90.6455
94.124
93.4452
90.969
90.7599
156.563
109.474
73.2482
126.355
87.4175
95.7128
9.19681
88.5446
87.7849
92.4878
92.7329
88.5223
87.8177
91.9959
89.9812
90.1453
89.7328
90.2228
90.0801
90.1451
89.7322
103.161
96.399
95.6484
96.9856
84.873
98.3575
95.8708
97.2091
90.6424
94.6941
92.3616
94.3284
90.6487
96.6633
90.0997
92.9873
91.3118
91.0039
90.0942
93.0113
91.3143
96.568
100.386
96.9296
100.875
96.9463
98.6272
97.1861
95.0079
94.1656
95.4684
95.8966
95.0143
94.0524
95.3655
92.2605
95.3795
93.1623
93.9648
92.2523
95.4827
93.1533
97.5529
96.8998
97.6055
96.7209
97.5882
97.552
96.9046
98.623
98.5585
98.4716
99.4886
98.9143
98.3951
98.6147
97.9827
98.1009
98.3678
98.1585
98.111
98.3663
97.9736
97.9666
98.3645
96.9214
106.121
105.075
98.0713
96.9442
97.5476
96.7279
96.8967
97.6357
97.6464
97.5228
96.9032
98.5575
99.5321
97.8276
98.4255
97.8916
98.3823
98.4527
97.9882
98.181
98.1288
98.3674
98.1204
98.3669
97.9925
99.0673
98.6838
98.6729
98.2921
98.6848
98.6753
99.0264
99.5417
101.627
100.005
114.025
101.404
100.149
99.536
99.378
99.2554
99.7879
99.5248
99.2606
99.7882
99.3756
98.5687
99.1431
98.8069
102.032
98.8074
101.897
98.7928
99.0596
98.2975
98.6972
98.6789
98.6899
98.6756
98.8812
99.5762
105.584
100.829
100.545
102.144
99.9558
99.5665
99.3792
99.5259
99.2596
99.7576
99.2605
99.78
99.361
100.655
100.415
100.214
99.9935
100.391
100.198
100.643
100.956
99.6052
101.362
103.519
99.3901
101.371
101.27
101.296
100.475
100.449
99.8987
100.33
100.444
101.27
101.171
102.464
100.475
102.284
101.689
102.471
101.174
100.75
100.05
100.441
100.215
100.472
100.248
100.62
100.922
103.556
99.087
101.367
99.425
101.376
100.83
101.269
99.9036
100.273
100.433
100.254
100.446
101.23
99.4669
100.279
98.913
99.6092
100.214
98.9294
99.5626
99.9155
98.719
97.0969
93.3916
97.1384
97.0803
100.806
98.765
98.5991
97.9469
98.1766
98.5953
97.9281
98.7702
97.1303
104.548
101.233
104.045
100.737
102.316
100.598
99.4407
99.6422
100.229
98.9386
100.236
98.9379
99.5673
100.184
93.3369
96.8279
97.2012
96.8335
97.1342
100.101
98.7617
98.1675
98.5624
97.9294
98.5857
97.9256
98.7621
98.3954
98.369
98.0925
98.2453
98.3735
98.0777
98.4193
98.6351
99.3245
98.6011
99.215
99.4014
98.5407
98.6299
98.194
97.8569
98.1582
97.5304
97.8416
98.1138
98.2863
98.6956
98.9289
98.5247
99.8788
98.5506
99.9961
98.6236
98.3819
98.2836
98.3472
98.0783
98.4693
98.0804
98.3435
98.6223
99.1885
99.3312
98.4957
99.3443
98.6014
98.6323
98.1609
97.6703
97.8115
98.0921
97.9755
98.0797
98.2341
97.1477
97.894
96.5638
97.3123
97.8893
96.5455
97.1548
96.8945
97.7634
95.5714
96.5039
97.8093
95.5412
96.9432
96.3768
95.9263
95.2626
94.8888
95.9122
95.2644
96.4188
97.1056
104.636
98.8664
98.8823
98.8867
98.5657
97.0589
97.1378
97.3275
97.8853
96.5487
97.8734
96.5551
97.1496
96.8936
96.5169
97.6529
95.5373
97.7738
95.5376
96.8853
96.3827
94.8797
95.9156
95.2529
95.9105
95.2568
96.3839
92.7046
94.1883
92.575
94.0917
94.2096
92.5707
92.7074
88.8759
86.1276
88.7956
86.825
85.9366
88.7385
89.4999
90.7623
91.3933
89.8025
90.3108
91.3546
89.7812
90.7496
92.5506
96.2774
94.6664
93.8144
94.3916
93.9599
92.635
92.7117
94.0677
94.1558
92.5557
94.1688
92.5589
92.7081
88.905
87.1092
86.8331
88.7991
86.4621
88.7408
88.9724
90.7769
90.3331
91.3449
89.7948
91.3622
89.7943
90.779
88.6513
89.1218
89.2724
89.5545
89.0662
89.2714
88.6913
86.2471
77.7328
88.2356
88.7168
77.6766
88.2339
86.132
87.5123
88.8665
88.79
89.5712
88.8647
88.7575
87.6275
88.4912
89.4921
87.67
88.6215
87.6334
88.6384
88.408
88.6682
89.5597
89.0787
89.2591
89.0726
89.2821
88.6749
85.974
88.3413
77.827
88.2291
77.7998
88.2452
86.0128
87.5331
89.5858
88.8615
88.763
88.8707
88.7794
87.5238
91.4366
90.574
91.8571
90.827
90.5209
91.8589
91.4399
91.0701
112.761
93.8037
93.6974
96.8788
93.6337
94.2984
92.0365
92.8084
93.2582
93.2449
92.814
93.247
92.9505
92.0874
91.4394
90.6055
95.2324
90.6812
94.5906
91.8789
91.4656
90.8607
90.5073
91.8608
90.5885
91.8601
91.5043
95.0141
93.6702
97.847
93.9843
97.4472
93.8259
95.0811
92.6166
93.2472
92.8203
93.2204
92.8197
93.3518
92.8579
94.8327
94.1317
94.6449
93.9276
94.1283
94.6629
94.8292
95.242
95.8612
96.6913
97.4865
95.824
95.2451
96.5485
95.373
95.15
96.3416
96.3095
95.1592
95.37
96.3421
95.0638
95.2905
94.2009
95.6101
94.2433
95.5373
95.0622
94.8324
93.9339
94.1337
94.6839
94.1308
94.6749
94.8327
95.2267
97.5741
95.8585
96.5719
95.8526
95.2455
96.555
95.3742
96.3219
95.178
96.3399
95.1792
95.3709
96.3407
97.564
96.8908
97.645
96.7299
97.5244
97.661
96.8888
98.4367
97.5362
98.4211
101.017
98.4057
97.5206
98.4221
98.0083
98.1315
98.368
98.1788
97.9989
98.1269
98.3694
97.9835
99.1443
96.8359
103.573
103.641
98.0108
96.8756
97.6071
96.7344
96.8941
97.6761
97.6715
97.6343
96.89
98.4497
100.603
103.026
98.4107
103.463
98.4127
98.4555
98.0231
98.1738
98.126
98.3665
98.1242
98.3706
98.0425
98.7543
98.7052
98.6824
98.3001
98.7928
98.7155
98.6877
99.8238
100.762
101.013
99.1
99.672
104.642
100.159
99.3512
99.2591
99.7301
99.5168
99.3403
99.259
99.7036
99.3273
101.813
98.9132
101.801
98.885
102.299
99.2142
98.7566
98.2984
98.7463
98.7037
98.727
98.6959
98.7597
99.8782
99.4212
101.937
100.185
102.887
100.136
99.9902
99.365
99.514
99.261
99.7248
99.2606
99.6939
99.3902
100.614
100.434
100.221
99.9944
100.608
100.438
100.189
100.88
98.8451
101.425
102.843
100.808
100.56
101.263
101.264
100.094
100.433
99.9368
101.235
100.267
100.447
101.459
101.991
100.562
103.251
100.783
103.196
101.459
100.614
100.019
100.401
100.213
100.429
100.247
100.619
100.996
102.33
102.212
101.092
100.928
101.118
100.998
101.262
99.9033
100.287
100.442
100.446
100.441
101.238
99.7541
100.23
98.9498
99.6203
99.9576
100.257
98.9515
100.562
96.82
97.2899
91.8284
102.875
96.1065
97.4145
98.7616
98.5655
97.9432
98.1633
98.7714
98.5844
97.9199
97.858
114.463
101.134
101.863
101.067
101.871
99.9364
99.6157
99.6163
100.274
98.9265
100.24
98.9415
100.414
102.608
91.855
110.273
97.7455
110.817
97.5621
98.6798
98.7783
98.1486
98.5625
97.9224
98.5639
97.932
98.7491
98.3647
98.3645
98.0727
98.2258
98.3458
98.3528
98.079
98.5997
99.2949
98.4984
99.0737
98.6084
99.2099
98.5193
98.1953
97.8457
98.0936
97.5509
98.2071
97.8302
98.1025
98.6053
99.0553
98.5337
100.037
98.5247
99.9447
98.6016
98.3557
98.3348
98.3539
98.0768
98.3645
98.075
98.3537
98.5985
99.0576
99.1716
98.528
99.1956
98.5288
98.592
98.1968
97.7176
97.8207
98.1152
97.8639
98.0856
98.2091
97.1245
97.8461
96.5401
97.2849
97.1323
97.8197
96.5682
96.9046
97.7839
95.525
96.6218
96.8778
98.2273
95.5109
96.3996
95.9282
95.2675
95.0188
96.3866
95.9384
95.2583
97.1255
95.5502
98.8601
102.345
98.9049
99.5218
97.2534
97.1316
97.2877
97.7888
96.564
97.8055
96.5425
97.1274
96.9861
96.6376
97.6033
95.5963
97.8095
95.5501
96.8956
96.3897
94.9676
95.8993
95.242
95.8905
95.2577
96.3812
92.7132
94.1222
92.568
94.1884
92.7115
94.1406
92.5612
89.1636
85.7861
88.7915
88.1714
89.0535
84.6076
88.8391
90.7736
91.3383
89.8048
90.2948
90.7667
91.3784
89.809
92.7197
95.9353
94.6006
92.2052
94.6983
94.5445
92.6968
92.7159
94.1506
94.1478
92.5652
94.2195
92.57
92.7202
89.3383
113.641
96.445
88.9548
101.676
88.8885
89.5521
90.7853
90.3094
91.3541
89.8277
91.3531
89.8194
90.8037
88.5251
89.0918
89.2441
89.5579
88.5477
89.1863
89.2531
86.1127
77.9455
88.2696
87.8232
86.0131
78.3315
88.0955
87.5014
88.8678
88.7538
89.5762
87.5009
88.854
88.7975
88.5602
90.9407
87.7481
94.1046
88.1705
89.883
88.8287
88.4925
89.5705
89.1128
89.2928
89.1779
89.2722
88.5392
85.9141
91.4023
81.1628
87.9963
79.9263
88.1132
85.7936
87.5738
89.5952
88.8578
88.8075
88.8603
88.8069
87.5516
91.5241
90.5052
91.8617
90.8551
91.5109
90.5169
91.8608
98.6981
97.4551
93.8368
93.6355
88.7895
100.437
94.1981
92.7392
92.8134
93.2128
93.2452
92.5179
92.8056
93.2477
90.8345
91.5569
90.6228
106.765
90.6242
96.8941
93.4551
91.5288
90.8628
90.5042
91.8576
90.5176
91.8589
91.5301
99.1414
93.8775
97.57
97.3126
97.1618
93.5023
109.403
92.3746
93.244
92.8276
93.2648
92.8182
93.2326
92.4955
94.8382
94.1365
94.6881
93.9491
94.8345
94.141
94.6902
95.2602
95.677
96.7
98.0264
95.2524
95.6516
96.5948
95.3754
95.1835
96.3406
96.321
95.3717
95.1869
96.343
95.0142
95.8482
94.2241
95.4285
94.1995
95.4587
95.0141
94.8423
93.9484
94.1506
94.6902
94.1466
94.691
94.8453
95.207
98.2316
95.7406
96.6172
95.607
95.1959
96.5923
95.3791
96.3245
95.1863
96.3483
95.1871
95.384
96.3454
97.6544
96.9001
97.6628
96.7249
97.6498
97.6439
96.9079
99.1624
102.713
98.4025
99.3355
98.7548
102.793
98.4294
98.067
98.1174
98.3618
98.1725
98.0578
98.1165
98.3615
98.2385
99.352
97.2378
103.869
103.609
98.5003
96.8248
97.6584
96.7108
96.9088
97.6119
97.6327
97.6563
96.9122
99.0439
99.4205
104.723
98.4968
102.644
98.4658
99.337
98.0756
98.153
98.0942
98.3576
98.1173
98.3601
98.0684
98.7721
98.7405
98.7086
98.293
98.775
98.7806
98.7072
99.8849
102.03
100.243
99.728
99.899
102.058
100.254
99.434
99.2637
99.7689
99.5107
99.42
99.2632
99.8237
99.5539
101.531
99.1222
100.765
99.5944
101.506
99.0983
98.7944
98.2879
98.7623
98.7012
98.7484
98.7049
98.8991
99.905
100.702
103.092
100.372
101.892
100.408
99.8327
99.4432
99.5111
99.2607
99.8396
99.2637
99.8275
99.4496
100.653
100.396
100.24
99.9961
100.65
100.409
100.188
100.899
112.327
101.052
101.647
100.987
106.101
101.039
101.236
100.114
100.453
99.9197
101.212
100.16
100.447
101.443
102.551
100.79
106.089
100.706
107.963
101.602
100.66
99.9943
100.41
100.223
100.418
100.203
100.662
100.894
101.684
106.592
101.057
108.49
101.133
100.927
101.235
99.9068
100.514
100.454
100.348
100.45
101.206
99.4657
100.257
98.9304
99.6237
101.262
100.265
99.0748
102.733
110.89
98.1007
110.142
100.592
112.341
98.5424
98.7431
98.5587
97.9127
98.181
98.7872
98.5464
97.8978
103.828
103.74
100.932
100.891
101.126
100.848
104.117
99.7746
99.6252
100.31
98.9449
100.3
98.9437
99.2266
97.6662
131.657
110.483
98.8655
110.019
98.772
97.7814
98.7411
98.1559
98.5574
97.9021
98.5544
97.8836
98.7537
98.3263
98.3615
98.1001
98.2206
98.3407
98.3502
98.0809
98.6031
99.1561
98.5433
98.9818
98.5985
99.1343
98.5586
98.2207
97.8205
98.1307
97.4846
98.1977
97.8399
98.1266
98.6272
99.8569
98.6045
95.4131
98.5896
95.9759
98.6302
98.322
98.2672
98.3561
98.0977
98.3599
98.1124
98.3288
98.5914
98.9631
99.1361
98.6245
99.1424
98.5593
98.5904
98.2968
97.583
97.8203
98.1426
97.8237
98.122
98.2599
97.118
97.7831
96.5567
97.2342
97.1247
97.7699
96.5569
96.8885
97.5948
95.5445
96.3203
96.8902
97.5218
95.5595
96.3975
95.9394
95.2487
94.8923
96.3898
95.9327
95.2404
96.866
94.9958
98.9744
97.3236
98.9507
97.5903
97.6022
97.1175
97.2992
97.7605
96.5599
97.7606
96.5562
97.1366
96.8756
96.2573
97.8394
95.5523
97.4289
95.5245
96.9354
96.3954
94.8722
95.9428
95.233
95.9261
95.2349
96.4226
92.7346
94.1404
92.5702
94.0699
92.7297
94.1565
92.5693
89.7948
95.0599
88.9945
87.427
89.6879
94.743
89.0522
90.841
91.3486
89.8313
90.3053
90.822
91.3784
89.8289
92.7333
95.5793
94.7045
93.3755
94.6618
93.7504
92.7305
92.7342
94.0651
94.1884
92.5814
94.1606
92.5768
92.7448
89.8673
87.2846
95.6371
89.0944
94.5305
88.9731
89.9344
90.8506
90.2971
91.4445
89.8371
91.3813
89.8317
90.8669
88.5253
89.1652
89.3899
89.5663
88.5411
89.1682
89.262
85.7159
82.6227
88.1485
90.7887
85.7347
81.9163
88.0763
87.5487
88.858
88.7979
89.592
87.5438
88.8662
88.8085
88.4202