/*--------------------------------*- C++ -*----------------------------------*\
| =========                 |                                                 |
| \\      /  F ield         | OpenFOAM: The Open Source CFD Toolbox           |
|  \\    /   O peration     | Version:  5.0                                   |
|   \\  /    A nd           | Web:      www.OpenFOAM.org                      |
|    \\/     M anipulation  |                                                 |
\*---------------------------------------------------------------------------*/
FoamFile
{
    version     2.0;
    format      ascii;
    class       surfaceScalarField;
    location    "3.5";
    object      phi;
}
// * * * * * * * * * * * * * * * * * * * * * * * * * * * * * * * * * * * * * //

dimensions      [0 3 -1 0 0 0 0];

internalField   nonuniform List<scalar> 
27091
(
9.80581e-10
1.65886e-10
-2.9359e-10
-2.52522e-11
2.08525e-09
1.68824e-09
-2.88095e-09
7.91092e-10
6.07389e-10
-4.09219e-09
-4.43042e-08
3.58536e-08
1.14935e-08
-2.0328e-11
-1.63114e-09
1.52283e-10
-6.22289e-10
1.63448e-09
3.2716e-10
-3.01194e-09
6.08515e-10
-5.50413e-09
-2.77365e-09
9.38773e-09
-2.10859e-10
2.53984e-09
-7.48317e-10
-8.70616e-10
-1.09364e-09
-9.89787e-11
-5.92223e-12
6.8544e-11
3.18803e-11
1.44768e-09
-3.14615e-11
-3.62611e-11
-2.58675e-10
-2.72567e-10
-4.30807e-10
-4.56462e-10
-3.46904e-11
-4.87924e-11
-5.52992e-11
1.40566e-09
-6.96054e-11
-1.63248e-12
1.39437e-09
-6.16141e-11
-1.23698e-14
1.38565e-09
-3.81958e-11
5.12902e-14
1.38189e-09
-2.51674e-11
1.12866e-13
1.37956e-09
-1.60236e-11
-1.36734e-13
1.3775e-09
-1.03766e-11
1.94968e-14
1.37637e-09
-6.49434e-12
1.30297e-13
1.37561e-09
-3.18165e-12
-1.19258e-13
1.37524e-09
-2.57337e-12
5.95933e-14
1.37461e-09
-1.72041e-12
1.07403e-13
1.37445e-09
-1.46644e-12
1.67247e-13
1.37398e-09
-6.54878e-13
-2.46817e-14
1.37448e-09
-2.00348e-13
-1.71216e-12
1.37385e-09
-1.32199e-13
1.26158e-14
1.37361e-09
-1.28702e-13
-8.1109e-14
1.3735e-09
-4.25051e-13
1.27924e-13
1.37353e-09
-6.42669e-13
2.26419e-13
1.37292e-09
-1.12577e-12
-3.13423e-13
1.37305e-09
2.90016e-13
-4.53725e-13
1.3728e-09
7.59342e-14
8.80178e-15
1.37249e-09
-1.26339e-13
-9.91345e-13
1.37265e-09
-2.85777e-13
4.23869e-13
1.3716e-09
-1.0618e-12
3.95097e-12
1.37165e-09
-9.17114e-13
2.97457e-12
1.37115e-09
-1.41761e-13
2.24229e-13
1.37241e-09
-2.40211e-12
1.02805e-12
1.37196e-09
2.59202e-13
6.588e-14
1.37121e-09
1.74865e-14
-6.95605e-13
1.37049e-09
2.40391e-13
4.58329e-13
1.37022e-09
7.13616e-13
-8.13979e-13
1.37193e-09
-3.22995e-12
9.18286e-13
1.37116e-09
3.64366e-13
1.48434e-13
1.37102e-09
9.63913e-15
7.33049e-14
1.37075e-09
-9.53738e-14
4.12772e-14
1.37138e-09
-7.26737e-13
-3.45103e-13
1.36979e-09
3.24494e-12
-1.6646e-12
1.37001e-09
-4.18787e-13
2.70567e-14
1.36981e-09
2.10126e-13
-6.71006e-14
1.37089e-09
-1.06346e-12
-2.82566e-13
1.37054e-09
1.91646e-13
1.33427e-13
1.36993e-09
-4.67799e-13
8.25062e-13
1.29203e-12
-1.17833e-12
-3.05344e-09
1.86238e-09
2.04155e-09
-6.59526e-10
-1.1471e-09
-7.01735e-09
-6.23954e-09
1.07777e-08
3.62626e-09
1.6311e-09
-3.87779e-10
-5.35748e-09
4.95335e-09
-8.39189e-10
-1.88027e-09
6.5714e-10
3.58314e-09
-1.53585e-09
-8.2415e-10
3.29095e-09
3.90558e-09
3.9861e-10
-1.40529e-08
6.45779e-09
-4.54901e-10
6.8113e-11
-4.55577e-10
7.42332e-11
7.68132e-10
-1.32544e-10
1.29196e-11
-1.15096e-11
8.65203e-11
4.46135e-11
-2.21535e-10
2.20147e-10
-2.25141e-11
-7.57313e-12
1.4451e-09
-5.70131e-11
-2.61835e-11
-2.66291e-10
-2.74314e-10
-4.39193e-10
-4.5179e-10
1.42359e-09
-3.82051e-11
-2.12767e-12
1.40745e-09
-2.28307e-11
5.47471e-13
1.39638e-09
-1.42802e-11
-2.4737e-14
1.38854e-09
-8.95422e-12
5.77482e-13
1.38361e-09
-5.68091e-12
3.7006e-14
1.38039e-09
-3.50561e-12
3.21678e-14
1.37785e-09
-1.24856e-12
4.32016e-13
1.37665e-09
-1.62551e-12
8.28821e-14
1.37601e-09
-1.34072e-12
9.83049e-14
1.37544e-09
-1.04202e-12
-1.39229e-14
1.3746e-09
-5.30055e-14
8.92819e-14
1.37404e-09
3.20134e-13
-1.17744e-13
1.37337e-09
2.96516e-13
9.1696e-14
1.37418e-09
-1.93123e-12
8.49568e-13
1.37415e-09
-1.50539e-12
9.67737e-13
1.37357e-09
6.85764e-14
-2.75181e-13
1.37294e-09
-7.32601e-15
-6.32328e-13
1.37306e-09
-3.00107e-13
3.21152e-13
1.37291e-09
1.17334e-13
-2.83129e-14
1.37201e-09
-1.01786e-12
1.65282e-12
1.37136e-09
-4.55684e-13
6.85858e-13
1.37183e-09
2.7433e-13
-1.94266e-12
1.37194e-09
5.38091e-13
-1.69992e-12
1.37295e-09
-3.25112e-12
1.97186e-12
1.37211e-09
-2.94963e-12
1.27054e-12
1.37148e-09
9.34131e-13
-1.70473e-13
1.3715e-09
-1.97947e-13
7.48803e-14
1.37169e-09
1.02654e-14
-6.89789e-14
1.3717e-09
5.98644e-14
5.39397e-13
1.36995e-09
-1.06635e-12
-5.16311e-13
1.37051e-09
2.72531e-13
-5.6755e-13
1.3705e-09
-4.36417e-13
3.69269e-13
1.36965e-09
1.12637e-12
-4.64147e-13
1.36988e-09
-4.47676e-13
-5.8334e-13
1.37123e-09
2.34214e-13
1.59076e-12
1.37071e-09
-3.58058e-14
8.29897e-14
1.37065e-09
9.49119e-14
1.21485e-13
1.37026e-09
-1.80612e-12
1.09699e-12
1.37004e-09
4.0039e-13
-2.53792e-14
1.37034e-09
1.5945e-13
-9.46395e-13
-1.86557e-13
1.22194e-12
2.61213e-10
1.4035e-09
-1.37566e-09
-2.64096e-10
1.10124e-08
2.12141e-09
-7.77867e-10
5.40726e-10
-7.47537e-08
4.4987e-08
-1.32751e-08
2.16261e-08
-2.29179e-10
1.46216e-09
7.28582e-09
1.22264e-09
-2.14729e-10
-7.13465e-09
1.0771e-08
-4.64427e-09
3.58972e-09
-1.66424e-09
-2.20958e-08
3.48987e-09
2.74842e-09
1.95535e-09
2.57438e-09
-3.27956e-08
2.08368e-09
9.82777e-09
3.02865e-08
3.11554e-09
2.09257e-10
-5.25277e-09
-3.3367e-09
5.26467e-09
6.34497e-11
-5.5284e-11
4.1742e-10
-1.97534e-11
-4.05832e-10
-1.67744e-10
-3.34262e-11
2.66525e-11
2.51995e-11
1.49318e-10
-4.08901e-11
2.37138e-10
-1.51442e-11
-4.90884e-12
-4.27483e-11
-7.41421e-11
-7.932e-11
2.00152e-11
1.49145e-09
1.34755e-12
-2.91033e-11
-2.85083e-10
-2.88627e-10
-4.6977e-10
-4.77327e-10
1.45034e-09
5.50304e-12
-2.84326e-12
1.42271e-09
4.12503e-12
4.4251e-13
1.40563e-09
2.92175e-12
-3.38805e-13
1.39473e-09
2.19845e-12
-4.54984e-13
1.38737e-09
1.44729e-12
3.18169e-14
1.38255e-09
9.99723e-13
1.08998e-13
1.38058e-09
4.62034e-13
8.38356e-14
1.37845e-09
3.00685e-13
3.60908e-14
1.37656e-09
6.58254e-13
-2.70882e-13
1.37461e-09
8.69677e-13
-1.15669e-13
1.37449e-09
-1.49458e-13
5.66488e-14
1.37456e-09
-2.30719e-13
3.34478e-13
1.37465e-09
-6.02932e-14
1.22218e-13
1.3737e-09
-4.26354e-13
-7.0821e-13
1.37272e-09
2.29641e-13
-9.0253e-13
1.37294e-09
-2.11026e-13
-7.917e-14
1.37296e-09
-1.54369e-13
-2.09479e-14
1.37237e-09
1.07061e-14
1.41669e-13
1.37198e-09
2.82504e-14
3.35922e-13
1.37229e-09
7.40371e-13
-2.20946e-12
1.37311e-09
8.84089e-13
-2.29344e-12
1.37269e-09
5.31596e-13
3.34376e-14
1.37332e-09
7.65194e-13
-9.88006e-13
1.37176e-09
3.85132e-14
-1.86123e-12
1.37114e-09
8.53584e-14
-2.53944e-12
1.37158e-09
5.20777e-13
-1.50385e-13
1.37147e-09
-1.72508e-13
-2.72819e-14
1.37138e-09
4.2549e-14
-5.57201e-14
1.37112e-09
-5.42161e-14
2.59277e-13
1.37063e-09
-3.05599e-13
-3.67093e-13
1.36994e-09
1.20134e-12
-3.3977e-13
1.3697e-09
7.00811e-14
-3.50836e-13
1.3705e-09
1.52006e-14
2.27385e-13
1.37087e-09
-2.2475e-12
1.34697e-12
1.37137e-09
6.96453e-13
-1.02943e-12
1.37091e-09
-5.05365e-14
4.13541e-13
1.37083e-09
-2.48279e-14
1.5682e-13
1.37004e-09
-7.03114e-14
-9.91752e-13
1.3699e-09
5.46351e-13
-4.02678e-14
1.36972e-09
2.55811e-13
6.60502e-14
-1.68114e-12
7.278e-13
-5.92771e-09
-6.43049e-09
-1.79773e-09
1.43469e-08
-3.2785e-09
3.2191e-10
5.19871e-09
-1.77696e-09
-4.65164e-10
1.27615e-09
1.47708e-09
-1.30305e-10
-4.21563e-10
-2.20136e-09
6.25105e-10
-4.32786e-10
-2.42084e-09
-3.22224e-09
6.86094e-09
4.95485e-11
-1.35562e-09
-1.04108e-10
-1.12953e-09
-3.25129e-09
3.28507e-09
1.2762e-09
4.6349e-09
-3.60136e-10
-2.36792e-09
-2.08728e-09
9.01946e-10
4.67577e-10
4.5338e-10
7.6676e-10
-2.58966e-09
-6.96718e-11
-7.48819e-11
6.76807e-11
-1.51574e-11
9.20303e-11
-4.19773e-11
1.88872e-12
-1.2859e-12
9.88273e-12
3.14917e-11
1.49147e-09
7.95596e-11
-3.48629e-11
-2.87622e-10
-2.85034e-10
-4.8534e-10
-4.76928e-10
1.44995e-09
4.88357e-11
-2.02347e-12
1.42167e-09
3.18592e-11
3.33315e-13
1.40395e-09
2.02847e-11
1.45456e-13
1.39319e-09
1.27072e-11
5.06278e-14
1.38637e-09
8.02598e-12
3.5728e-14
1.38208e-09
5.11056e-12
-1.6836e-14
1.37904e-09
3.23997e-12
7.99257e-14
1.37738e-09
1.71145e-12
8.37254e-14
1.37614e-09
1.44462e-12
2.94469e-13
1.37589e-09
1.06536e-12
-1.13301e-13
1.37515e-09
3.91892e-13
4.78703e-14
1.37456e-09
2.20207e-13
-1.79833e-14
1.37425e-09
1.3181e-13
-2.53816e-14
1.37363e-09
-9.90276e-14
1.39555e-13
1.37367e-09
1.88389e-13
-1.41089e-13
1.37317e-09
7.69585e-14
6.76097e-14
1.37284e-09
3.70331e-14
-2.36005e-15
1.37274e-09
4.33464e-14
-7.52365e-14
1.37276e-09
8.11386e-13
-9.48125e-13
1.37307e-09
1.15211e-12
-8.58173e-13
1.37231e-09
1.71779e-13
1.33948e-12
1.37218e-09
5.41708e-13
-1.76728e-14
1.37174e-09
-1.22989e-12
2.30652e-12
1.37169e-09
-7.5844e-14
3.55537e-14
1.37161e-09
2.42453e-14
1.82829e-14
1.37162e-09
-1.30121e-13
5.12951e-13
1.37126e-09
1.52424e-14
5.84687e-14
1.37132e-09
-1.1087e-13
-1.74544e-14
1.37129e-09
-2.49564e-13
1.16719e-13
1.37081e-09
-4.99552e-13
5.69486e-13
1.37038e-09
1.51109e-12
2.17857e-14
1.37028e-09
2.91667e-14
4.93275e-14
1.37072e-09
-5.44197e-15
-4.98702e-13
1.37082e-09
1.03675e-12
-3.45817e-12
1.37062e-09
-1.19239e-12
2.02348e-12
1.37074e-09
2.21923e-13
-4.52479e-13
1.37081e-09
4.91379e-14
-1.9514e-13
1.37061e-09
1.3763e-12
-1.2966e-12
1.36947e-09
1.69218e-12
-3.63406e-14
1.36969e-09
1.90873e-14
-6.26134e-15
-1.93185e-12
4.5346e-13
-2.39286e-09
-1.25714e-09
-1.28611e-08
-7.7129e-10
4.41332e-09
-9.95922e-10
2.08048e-09
-2.33274e-09
1.87081e-09
2.20847e-08
3.05012e-09
-8.50938e-09
-7.32602e-10
-1.62766e-09
1.88089e-10
-8.20627e-10
1.35043e-09
-1.83416e-09
-5.60659e-10
-1.34846e-09
5.62805e-09
4.66857e-09
-1.28703e-09
-4.6131e-09
-5.0932e-09
2.13481e-08
8.33793e-09
-2.89897e-08
1.13074e-09
-1.80661e-09
5.09747e-09
-6.48218e-09
2.06059e-09
1.26705e-09
6.21488e-09
-9.92707e-10
4.91344e-10
-2.51993e-10
1.39192e-10
-3.56551e-10
-2.53146e-08
2.84727e-08
-2.43537e-08
1.46845e-08
8.54666e-11
-4.96419e-10
3.6627e-12
8.31433e-12
3.98975e-10
-1.03259e-10
-6.07893e-11
7.21035e-11
-4.30335e-11
1.90751e-11
-6.17979e-11
3.23408e-11
-1.01299e-10
-4.64859e-11
-3.91693e-11
7.73889e-11
7.83008e-11
1.03346e-10
7.32809e-11
-1.17715e-10
2.25081e-14
2.10536e-13
8.18231e-11
3.56584e-11
1.44717e-09
1.23754e-10
-2.83511e-11
-2.77621e-10
-2.74361e-10
-4.59047e-10
-4.52057e-10
1.41913e-09
7.92871e-11
-2.58465e-12
1.40184e-09
4.84443e-11
5.08946e-13
1.39126e-09
3.08072e-11
-1.36166e-13
1.38556e-09
1.62852e-11
1.91674e-12
1.38187e-09
1.14726e-11
4.16385e-14
1.37895e-09
7.94709e-12
-1.03e-13
1.37725e-09
4.84514e-12
-8.67258e-14
1.37609e-09
2.75188e-12
-5.46655e-14
1.37549e-09
1.77128e-12
1.02369e-13
1.37492e-09
1.13392e-12
3.44021e-13
1.37438e-09
5.82944e-13
1.86915e-13
1.37409e-09
3.06205e-13
5.93732e-14
1.37413e-09
4.89026e-13
-5.46302e-13
1.37382e-09
-2.60297e-14
9.1892e-14
1.37364e-09
-1.17346e-13
3.38383e-13
1.37367e-09
-6.85912e-14
-3.21648e-14
1.37321e-09
-5.33525e-13
8.92182e-13
1.37319e-09
-1.00085e-13
2.0939e-14
1.37277e-09
2.27855e-13
8.64677e-13
1.37176e-09
6.52769e-13
1.36726e-12
1.37255e-09
-1.47918e-12
7.28581e-13
1.37271e-09
3.58862e-13
-1.12995e-13
1.37169e-09
-4.58065e-13
1.16939e-13
1.37155e-09
4.82893e-14
-1.17955e-13
1.37155e-09
-1.16601e-13
1.70391e-14
1.37136e-09
1.33952e-13
-1.92196e-13
1.37123e-09
-2.25555e-14
4.98658e-14
1.37087e-09
-2.34017e-13
3.69655e-13
1.3706e-09
-2.22243e-14
-6.54881e-14
1.37045e-09
1.23188e-14
-4.59549e-13
1.37107e-09
8.13036e-14
7.04326e-13
1.37073e-09
-1.28836e-13
4.09995e-13
1.37174e-09
-3.24468e-12
2.14386e-12
1.37013e-09
2.69815e-13
2.31008e-12
1.37022e-09
-6.01425e-13
-7.58167e-13
1.37072e-09
-4.80509e-13
1.51917e-13
1.37099e-09
-3.18515e-13
3.87989e-14
1.37086e-09
-1.33536e-12
2.80147e-12
1.36947e-09
3.31721e-12
-2.69833e-13
1.36975e-09
-8.53277e-13
5.78803e-13
-2.32083e-13
-8.37984e-13
1.40204e-09
3.54734e-10
-2.82293e-09
-8.00217e-10
6.31068e-10
5.19733e-09
4.95289e-09
-9.98107e-09
4.8669e-10
-2.06474e-10
-1.67974e-09
1.12975e-09
2.69768e-10
2.26317e-09
1.52158e-09
1.36918e-08
-3.29922e-09
-1.46209e-09
-1.83793e-09
-2.7896e-09
-7.68146e-10
-7.68091e-10
-3.48085e-09
-3.0706e-09
-1.9002e-10
3.12278e-10
-5.9368e-10
-1.12717e-09
1.59859e-09
6.4588e-10
3.64373e-10
9.88393e-10
4.11147e-10
-2.40979e-09
-1.28124e-10
-2.27012e-11
8.4604e-11
2.17373e-12
-9.27867e-11
-1.10419e-10
-1.61189e-10
1.00477e-10
1.05962e-10
1.25727e-10
9.62759e-11
-1.33857e-10
-4.26262e-12
6.97685e-12
9.20238e-11
3.91191e-11
1.36665e-09
1.2525e-10
-2.50486e-11
-2.58064e-10
-2.4827e-10
-4.26267e-10
-4.10554e-10
1.36978e-09
7.85639e-11
-2.5588e-12
1.37088e-09
4.66516e-11
5.20965e-13
1.3729e-09
2.87276e-11
-1.2348e-13
1.37322e-09
1.75156e-11
-1.7447e-12
1.37362e-09
1.08027e-11
7.08606e-14
1.37441e-09
6.73992e-12
2.2642e-13
1.37459e-09
4.27771e-12
2.03951e-13
1.37437e-09
2.69259e-12
9.90154e-14
1.37447e-09
1.09246e-12
4.04675e-13
1.3744e-09
9.9264e-13
4.88091e-14
1.37423e-09
5.92511e-13
1.04827e-14
1.37449e-09
9.93471e-13
-1.10016e-12
1.37378e-09
4.44079e-13
6.04605e-13
1.37379e-09
-6.32701e-13
4.569e-13
1.37317e-09
4.62767e-13
-1.13795e-13
1.37263e-09
8.16363e-14
2.4898e-13
1.37398e-09
1.30394e-12
-3.32696e-12
1.37361e-09
1.07318e-13
2.29615e-14
1.37353e-09
2.28224e-13
-6.36608e-14
1.37342e-09
7.80338e-13
-1.6131e-13
1.37088e-09
4.31024e-12
-3.3834e-12
1.37106e-09
-8.49452e-13
8.98767e-13
1.37206e-09
-2.49942e-13
-1.34034e-12
1.37178e-09
1.36137e-13
5.695e-14
1.37153e-09
2.55689e-13
-2.40582e-13
1.37113e-09
1.16376e-12
-7.53462e-13
1.37113e-09
-2.19161e-13
8.32753e-14
1.3711e-09
-6.61565e-14
-2.58364e-13
1.37098e-09
-9.46473e-14
8.75505e-14
1.37076e-09
-4.70739e-13
6.04454e-13
1.37152e-09
-5.77379e-13
-1.96183e-13
1.37189e-09
-3.40472e-13
-2.48115e-13
1.37019e-09
-4.29087e-13
-1.19989e-12
1.37058e-09
-1.03883e-13
-9.0881e-14
1.36982e-09
-4.72086e-13
5.59611e-13
1.36959e-09
-1.76449e-13
-1.37066e-13
1.36948e-09
-1.79956e-13
-8.13134e-14
1.36947e-09
1.42192e-12
-2.7838e-12
1.37131e-09
1.12852e-12
3.17721e-13
1.37102e-09
-4.28446e-13
-1.60647e-13
-6.92791e-13
1.53429e-12
-2.58128e-09
-1.24046e-09
-2.81738e-09
6.8301e-09
1.40125e-09
-1.01372e-09
2.25179e-09
1.41474e-09
-4.05406e-09
1.46187e-09
-7.18689e-10
-4.7001e-09
2.07833e-09
1.87859e-09
-2.46045e-10
3.67244e-09
-2.74206e-09
-2.4864e-09
1.80207e-09
4.75654e-10
-7.08204e-11
8.4978e-10
-4.67041e-10
-7.87571e-10
-5.59073e-10
-7.33755e-12
-6.9089e-10
1.0031e-09
2.54201e-10
-1.58464e-11
-2.0627e-11
2.4073e-11
-8.62526e-11
9.8653e-11
-7.78458e-11
-6.95449e-12
3.80253e-12
5.59369e-11
2.50609e-11
1.28071e-09
7.43205e-11
-2.33474e-11
-2.29176e-10
-2.19882e-10
-3.85734e-10
-3.71694e-10
1.31923e-09
4.12581e-11
-1.39026e-12
1.34054e-09
2.46647e-11
5.01679e-13
1.35407e-09
1.49178e-11
9.87872e-14
1.36227e-09
9.01104e-12
1.20904e-13
1.3673e-09
5.4959e-12
8.88336e-14
1.37001e-09
4.09759e-12
-2.51487e-13
1.37191e-09
2.0908e-12
9.56493e-14
1.37293e-09
1.42228e-12
6.25561e-14
1.37315e-09
8.4095e-13
-1.39117e-13
1.3741e-09
-2.20872e-13
1.00304e-13
1.37415e-09
4.34252e-13
-4.65397e-14
1.37361e-09
1.61319e-13
1.22151e-12
1.37376e-09
1.24812e-13
1.57274e-14
1.37342e-09
1.11552e-13
-5.45615e-13
1.37357e-09
-1.83687e-14
1.82659e-13
1.37364e-09
5.92336e-14
-1.88493e-13
1.3726e-09
-4.20913e-13
2.61843e-12
1.37287e-09
-3.17952e-13
1.96228e-14
1.37335e-09
-4.76461e-13
7.57338e-14
1.37099e-09
6.71232e-12
-3.70724e-12
1.37222e-09
3.96465e-13
2.54546e-12
1.37227e-09
-3.93007e-13
-6.34102e-13
1.37198e-09
-1.62309e-13
6.73032e-14
1.37173e-09
1.49911e-13
1.08731e-13
1.37155e-09
-6.21858e-14
3.69432e-13
1.37175e-09
-7.45436e-14
9.24297e-13
1.37142e-09
5.89324e-14
-7.05141e-14
1.37126e-09
-6.4126e-14
4.53245e-14
1.37105e-09
-1.84224e-13
1.93911e-13
1.37097e-09
-6.50997e-14
-4.26505e-13
1.371e-09
2.5278e-13
-9.58426e-13
1.3708e-09
-2.29721e-13
-3.70998e-15
1.37066e-09
-2.18319e-13
-1.47766e-13
1.37027e-09
3.64516e-13
-1.63131e-13
1.36998e-09
2.52699e-13
-5.02527e-13
1.3699e-09
-2.18702e-13
6.39723e-14
1.36964e-09
9.18789e-15
2.19253e-14
1.37001e-09
-7.14765e-13
1.72336e-12
1.37041e-09
6.43244e-13
5.5338e-14
1.37064e-09
-1.42151e-13
-5.35975e-13
-3.25788e-13
-9.83688e-13
2.9973e-09
4.19444e-09
-3.06925e-09
-3.93151e-09
1.50884e-09
-1.13921e-09
-4.48147e-09
-1.44018e-09
-9.67409e-10
5.20003e-10
5.24715e-09
7.52278e-10
-5.85969e-10
2.61041e-09
-2.41433e-08
3.2472e-09
2.52297e-09
1.58268e-09
2.00373e-08
-8.71723e-09
5.5675e-09
-1.3671e-09
2.17827e-10
-8.56973e-10
-5.66688e-10
-1.79837e-09
-3.75553e-10
4.90723e-09
-2.28258e-09
-2.68779e-09
5.18234e-10
-4.39577e-09
5.97938e-09
-6.64114e-10
1.96454e-09
5.63004e-09
-4.092e-09
-5.21967e-10
1.11596e-10
1.02285e-10
-1.02793e-09
-1.93069e-11
-1.4094e-09
-7.37533e-11
4.18524e-10
-2.04407e-09
2.8389e-10
-1.24029e-09
2.58194e-09
-1.76066e-10
4.1666e-11
-2.63598e-11
9.96012e-11
6.11587e-11
-2.45892e-11
-4.44311e-12
1.32347e-10
2.94099e-12
3.66817e-11
-2.54078e-11
-4.66124e-11
-4.94284e-11
-8.43482e-12
-4.6168e-12
-8.43687e-12
1.23001e-09
-3.98072e-11
-1.65011e-11
-2.0512e-10
-2.07034e-10
-3.40625e-10
-3.46672e-10
1.29013e-09
-1.73283e-11
-1.68881e-12
1.32416e-09
-1.02154e-11
6.93579e-13
1.34434e-09
-5.53997e-12
1.12251e-13
1.35619e-09
-3.16018e-12
1.30115e-13
1.36321e-09
-1.81009e-12
9.68077e-14
1.36848e-09
-2.00776e-12
6.5943e-13
1.37095e-09
-6.38747e-13
7.15253e-14
1.37205e-09
1.44096e-13
-7.70504e-15
1.37293e-09
-2.4607e-13
2.86462e-14
1.37305e-09
4.91348e-13
-9.96881e-13
1.37372e-09
-5.02927e-13
1.08252e-13
1.3738e-09
-1.17004e-13
5.23975e-14
1.37368e-09
1.87786e-13
-9.33052e-14
1.3735e-09
-4.9552e-13
6.42907e-13
1.37343e-09
-1.56224e-13
6.08784e-14
1.37313e-09
5.12263e-16
2.12968e-13
1.37273e-09
-5.28307e-13
3.67568e-13
1.37214e-09
2.6304e-14
1.03824e-13
1.37106e-09
4.42121e-13
2.32126e-14
1.373e-09
7.50726e-13
3.88285e-12
1.37284e-09
8.00898e-13
-3.78451e-13
1.37299e-09
-1.82633e-12
1.14327e-12
1.3727e-09
1.988e-14
-2.26808e-14
1.37144e-09
1.52023e-12
-2.39546e-13
1.37142e-09
-1.09103e-14
-1.49609e-13
1.37154e-09
-3.39434e-13
2.27796e-14
1.37125e-09
1.09295e-12
-8.60208e-13
1.37124e-09
-2.39434e-13
6.48075e-14
1.37126e-09
-1.70996e-13
-1.40594e-13
1.37133e-09
-1.62665e-13
-7.53982e-14
1.37067e-09
-3.1247e-13
1.1363e-12
1.37058e-09
-1.27002e-13
-1.07761e-13
1.37062e-09
-3.71753e-13
3.46722e-14
1.37003e-09
4.53424e-13
4.25278e-13
1.37037e-09
1.32367e-15
-1.63815e-13
1.3701e-09
-3.37972e-14
2.51497e-14
1.36957e-09
4.68196e-13
2.62425e-14
1.37002e-09
-1.0272e-12
-1.84405e-13
1.36988e-09
4.91542e-13
2.6688e-13
1.37105e-09
-2.88082e-12
1.54198e-12
-4.21128e-13
-6.47254e-13
4.96947e-09
8.33132e-10
-3.54861e-09
-2.14113e-08
-5.38572e-08
6.29104e-08
1.02953e-08
-2.76628e-09
4.24208e-10
4.26075e-11
2.88476e-10
2.01099e-09
1.43635e-09
-3.54887e-11
1.93956e-08
-1.54692e-08
-7.09656e-09
1.00664e-08
8.27288e-10
-4.86347e-09
6.94041e-10
-1.51188e-10
4.08646e-09
-2.6743e-09
3.28899e-09
-2.10673e-09
-3.72635e-09
-1.06123e-09
1.85333e-09
1.64282e-09
-5.80542e-10
-1.47922e-09
4.40951e-10
-5.34612e-10
-6.21062e-10
-1.20464e-10
8.35196e-10
8.52347e-10
-8.51389e-10
4.54596e-10
-7.29711e-10
2.74157e-10
-1.05455e-10
8.32859e-11
-7.82406e-11
-6.25204e-11
1.6293e-10
-2.53254e-11
1.15925e-11
1.45425e-10
-2.25007e-11
1.23208e-11
-2.59581e-11
-4.74228e-11
-4.81317e-11
1.25713e-09
-1.2583e-10
-1.94682e-11
-2.14287e-10
-2.17003e-10
-3.57128e-10
-3.6327e-10
1.30331e-09
-6.21205e-11
-1.52596e-12
1.33113e-09
-3.88354e-11
6.51115e-13
1.34813e-09
-2.27761e-11
5.01942e-14
1.35854e-09
-1.38739e-11
1.11304e-13
1.36509e-09
-8.6524e-12
1.03421e-13
1.36833e-09
-5.28852e-12
-1.37851e-13
1.37059e-09
-3.26383e-12
1.77302e-13
1.37245e-09
-2.00492e-12
1.06174e-13
1.37322e-09
-1.19566e-12
4.02803e-16
1.3736e-09
-1.13979e-12
1.09138e-12
1.37372e-09
-3.39445e-13
-4.41476e-13
1.3736e-09
-1.50224e-13
1.33881e-15
1.37327e-09
5.78993e-13
-2.03203e-13
1.37344e-09
-3.4141e-13
-4.72657e-13
1.37312e-09
-8.97225e-16
2.29364e-14
1.37336e-09
1.00255e-14
-3.97073e-13
1.37356e-09
-5.73354e-13
-2.94189e-13
1.37235e-09
-9.35145e-13
2.03016e-12
1.37278e-09
-1.94906e-13
6.67011e-14
1.37287e-09
3.29531e-13
1.92998e-13
1.37254e-09
1.74273e-13
8.18649e-13
1.37182e-09
-9.16643e-14
-1.14917e-12
1.3714e-09
2.94222e-13
1.3217e-14
1.3724e-09
1.22827e-12
-8.35219e-13
1.3712e-09
3.67653e-14
1.02784e-12
1.37088e-09
2.97246e-13
-4.34576e-13
1.37182e-09
-2.48217e-12
2.51482e-12
1.37146e-09
-4.84637e-13
4.90028e-13
1.37138e-09
-2.40813e-13
4.21368e-14
1.37097e-09
7.71918e-13
-6.22984e-13
1.3709e-09
-3.0196e-13
-3.92111e-14
1.37066e-09
-2.36955e-13
2.56215e-13
1.37021e-09
-1.65946e-13
1.69762e-13
1.37062e-09
6.83341e-14
-1.03627e-13
1.3701e-09
3.88242e-13
5.98274e-14
1.3706e-09
4.5734e-13
-1.0474e-12
1.37093e-09
-1.65468e-13
2.52633e-13
1.36961e-09
4.53054e-13
-2.00017e-13
1.36981e-09
3.92983e-13
-1.35925e-13
1.36983e-09
1.10126e-12
-4.02437e-12
-2.09808e-12
6.16935e-14
8.82308e-10
-3.44492e-10
1.35826e-09
-1.87112e-09
6.65632e-10
6.23191e-09
-2.48696e-10
-2.65515e-10
1.21575e-09
-2.81125e-11
-1.73692e-09
-1.18867e-09
-9.62445e-10
-1.46585e-10
-9.00521e-10
-1.6351e-09
-1.53212e-10
-8.47512e-10
1.68309e-09
-7.06875e-10
-1.51626e-10
2.82447e-10
-2.62796e-10
-1.82305e-10
1.2287e-10
-8.212e-10
-4.7719e-10
4.7812e-10
4.65641e-09
-5.42358e-09
4.04964e-09
-2.84485e-12
-6.1529e-10
-1.02894e-09
-9.35654e-10
-6.99746e-10
8.63914e-10
1.75942e-09
-1.31652e-09
-1.24457e-09
-6.22532e-11
5.02631e-10
-4.8921e-10
5.9716e-10
-1.84877e-10
-4.25703e-10
-1.18781e-10
-2.65225e-13
2.19831e-12
7.23318e-11
4.45162e-11
1.3514e-09
-2.24885e-11
-2.38552e-10
-2.3996e-10
-4.01495e-10
-3.98861e-10
3.01485e-11
2.16157e-11
4.55954e-11
2.98091e-11
1.33971e-09
-1.26269e-12
1.35037e-09
-2.77059e-13
1.35792e-09
2.70043e-14
1.36351e-09
-2.71279e-14
1.36736e-09
2.92635e-13
1.37059e-09
7.80858e-14
1.37237e-09
-1.57782e-14
1.37301e-09
-2.84398e-13
1.37346e-09
6.65883e-15
1.37412e-09
-3.4633e-15
1.37414e-09
-9.23349e-14
1.37408e-09
4.9697e-13
1.37313e-09
1.85389e-12
1.37362e-09
4.90791e-13
1.37338e-09
-3.3823e-15
1.37338e-09
5.68153e-14
1.37285e-09
5.81076e-13
1.37282e-09
1.15778e-12
1.37324e-09
-1.65541e-12
1.37279e-09
8.7811e-14
1.3731e-09
1.10954e-12
1.37265e-09
1.05268e-14
1.37224e-09
-1.84411e-12
1.37123e-09
-1.12697e-12
1.37147e-09
1.10364e-12
1.37188e-09
-5.58916e-13
1.37158e-09
4.31405e-13
1.37105e-09
-8.10691e-13
1.37111e-09
-7.77059e-13
1.37094e-09
3.03665e-14
1.37138e-09
6.90235e-13
1.37097e-09
1.35582e-13
1.37082e-09
-2.39602e-13
1.37087e-09
-1.03022e-13
1.37042e-09
7.81555e-13
1.37063e-09
2.49306e-14
1.37011e-09
1.0158e-12
1.37017e-09
-2.87334e-13
1.37061e-09
1.7421e-13
1.37118e-09
-2.1954e-13
1.36987e-09
2.61013e-12
-1.05222e-14
1.5716e-09
3.85412e-10
-1.695e-08
-3.97004e-09
6.99052e-09
2.8268e-09
5.91489e-09
4.51727e-09
-1.26123e-09
4.74579e-09
1.46118e-09
2.46698e-09
2.08134e-09
-3.54616e-10
4.09572e-10
-1.24818e-09
1.33591e-09
9.12901e-09
-2.41308e-09
3.69778e-09
-1.04458e-08
1.9055e-10
7.7981e-10
1.89157e-08
-5.06536e-10
-1.97722e-08
1.4249e-08
-4.7062e-09
4.04224e-09
6.86196e-10
-1.29929e-09
-8.31579e-10
-1.76441e-09
-1.17897e-09
-4.95803e-09
-4.88975e-09
2.38663e-08
5.01244e-09
-2.49257e-09
5.95942e-10
-2.76143e-08
5.51584e-09
1.98914e-09
-1.3427e-09
1.12015e-09
-6.20059e-09
-8.95935e-11
-7.49896e-11
-2.89514e-11
4.62726e-11
1.25011e-10
2.4041e-09
-6.50168e-11
3.68225e-11
-5.9873e-10
-6.31337e-10
-5.98679e-10
-6.31276e-10
-7.35169e-11
-6.5009e-11
-7.35061e-11
2.33699e-09
-1.03034e-10
1.73992e-12
2.32074e-09
-9.20861e-11
3.04631e-13
2.3079e-09
-5.66594e-11
1.38188e-13
2.30253e-09
-3.73089e-11
3.63871e-13
2.29935e-09
-2.36624e-11
3.2787e-13
2.29611e-09
-1.53548e-11
1.30111e-13
2.29443e-09
-9.59626e-12
6.30012e-14
2.29338e-09
-6.12926e-12
5.02211e-13
2.29288e-09
-3.77204e-12
2.3304e-14
2.29195e-09
-2.49484e-12
-5.06354e-14
2.29161e-09
-1.96551e-12
2.14062e-14
2.29114e-09
-9.69487e-13
-4.15344e-13
2.29189e-09
-2.65536e-13
-3.93057e-13
2.29089e-09
-2.35846e-13
1.04709e-13
2.29055e-09
-1.02325e-12
2.9627e-13
2.29049e-09
-4.24153e-13
-8.52593e-14
2.2905e-09
4.45893e-13
-9.23127e-14
2.28967e-09
5.12508e-13
6.72565e-13
2.29e-09
-4.60438e-13
1.02421e-13
2.28982e-09
6.15951e-14
-3.64325e-14
2.28874e-09
-3.92713e-13
4.89636e-13
2.28907e-09
2.84982e-13
-7.56974e-14
2.28759e-09
6.10849e-12
-1.67094e-12
2.2875e-09
4.76625e-12
-2.94447e-12
2.2872e-09
-1.317e-13
-2.28166e-13
2.28908e-09
1.19285e-12
-1.66634e-12
2.28841e-09
4.70084e-13
2.16841e-14
2.28717e-09
1.74733e-13
4.58381e-13
2.28583e-09
5.87436e-13
-9.67563e-14
2.28553e-09
-1.91128e-12
9.21911e-13
2.28802e-09
-7.23241e-13
-1.65269e-12
2.28713e-09
7.91665e-13
-9.22058e-14
2.28679e-09
1.89023e-13
7.54106e-14
2.28653e-09
-1.41363e-13
-4.52965e-14
2.28747e-09
-1.08244e-12
2.48531e-12
2.28497e-09
3.76326e-12
-2.98242e-12
2.28542e-09
-6.69453e-13
-1.07957e-13
2.28493e-09
1.04349e-13
2.37362e-13
2.28657e-09
-1.53229e-12
-8.1382e-13
2.28609e-09
1.97859e-13
1.65245e-13
2.28495e-09
7.61864e-13
9.1119e-13
-5.98442e-13
-4.48032e-13
8.64232e-09
1.87876e-09
-1.38111e-08
4.2831e-09
1.2877e-08
4.50404e-09
-1.37931e-08
-1.86253e-09
2.05678e-10
2.40898e-09
2.92772e-10
3.12914e-09
-7.76198e-09
9.48522e-10
8.32469e-09
3.18109e-09
-3.0009e-09
-5.17484e-09
-4.27857e-09
2.75591e-09
-5.18171e-09
1.3867e-08
-5.79507e-09
-1.45031e-09
-4.19587e-09
1.32782e-08
4.34738e-09
1.41997e-09
-2.72425e-09
-1.2714e-08
-3.60726e-09
-1.22506e-09
-3.57322e-10
5.83556e-10
-7.24734e-10
7.13674e-10
1.00988e-09
-1.05301e-10
-7.05723e-11
-9.81082e-13
-1.89777e-12
1.71297e-11
1.61622e-10
-6.44912e-10
6.39082e-10
-5.95777e-11
1.04377e-12
-6.70539e-13
2.40197e-09
-8.51135e-11
2.64562e-11
-6.1044e-10
-6.26051e-10
-6.10437e-10
-6.26067e-10
2.36262e-09
-5.76006e-11
2.22035e-12
2.34068e-09
-3.4129e-11
-5.22743e-13
2.32409e-09
-2.12893e-11
8.43326e-14
2.31256e-09
-1.15045e-11
-4.97035e-13
2.30524e-09
-8.47385e-12
2.84983e-14
2.3005e-09
-5.22792e-12
-9.79145e-15
2.29668e-09
-2.08093e-12
-1.8364e-13
2.29496e-09
-2.2956e-12
-4.7872e-14
2.29408e-09
-1.81224e-12
-6.00215e-14
2.29319e-09
-1.4165e-12
-2.21438e-14
2.29203e-09
-2.8139e-14
-3.67365e-14
2.29125e-09
4.86601e-13
-4.2426e-13
2.2903e-09
4.88115e-13
-1.73447e-14
2.29133e-09
-3.40228e-12
1.87237e-12
2.29161e-09
1.45239e-12
-1.51e-12
2.29066e-09
3.5815e-13
4.41643e-13
2.28955e-09
2.71892e-13
3.97751e-13
2.28971e-09
3.77837e-14
-6.55493e-13
2.28953e-09
-1.31015e-13
3.01536e-14
2.28817e-09
4.79728e-12
-2.48026e-12
2.28707e-09
3.17558e-12
-1.40525e-12
2.28814e-09
5.28052e-13
2.26663e-12
2.28836e-09
8.12728e-13
1.75108e-12
2.28977e-09
-2.51335e-12
2.66122e-12
2.28868e-09
9.28564e-13
2.34283e-12
2.28768e-09
1.08588e-12
-5.1121e-14
2.28753e-09
1.62426e-13
-1.77564e-14
2.28785e-09
2.19058e-13
-2.68907e-13
2.28779e-09
-7.12691e-13
-8.3397e-13
2.28539e-09
-7.78159e-13
1.71654e-12
2.28573e-09
3.92615e-13
-7.15145e-13
2.28578e-09
-5.35089e-13
8.52304e-13
2.28461e-09
5.76559e-13
-1.85278e-13
2.28516e-09
-9.82049e-13
-1.39369e-12
2.28705e-09
1.7446e-13
3.14833e-12
2.28635e-09
6.92164e-14
-8.07574e-14
2.28634e-09
2.22193e-13
-8.43049e-14
2.28568e-09
7.73912e-13
-6.30122e-13
2.28537e-09
6.1951e-13
-1.96579e-13
2.28572e-09
2.029e-13
-7.77989e-13
-2.84148e-13
2.0555e-13
-2.27332e-09
-1.66251e-08
1.02232e-09
-1.32803e-09
1.07966e-09
1.20497e-09
7.53855e-10
2.11325e-09
-1.88535e-09
7.33658e-09
9.21091e-09
-3.71048e-08
-3.80969e-10
-2.437e-09
3.86561e-09
3.41244e-08
1.93279e-09
-4.1421e-09
1.72356e-09
-1.55559e-08
8.87795e-09
-2.18872e-09
2.08253e-10
-2.60442e-10
5.08826e-09
6.24913e-09
3.07982e-09
3.00741e-08
-9.11149e-10
5.10287e-09
-2.7912e-09
-3.45545e-08
-1.22609e-08
1.3664e-09
-1.49282e-09
-7.42466e-10
-1.64505e-09
1.47748e-08
-2.73862e-09
-7.2622e-10
-1.25085e-09
1.53565e-09
1.34408e-09
1.83596e-09
-2.06638e-10
-1.35857e-10
-1.64437e-10
1.91175e-10
1.48507e-10
1.67251e-10
-1.67695e-10
6.89701e-10
-4.48998e-11
2.43774e-12
-2.49461e-12
-1.76218e-10
-1.73692e-10
-1.8252e-10
5.53801e-11
2.47596e-09
1.83487e-12
2.98313e-11
-6.50708e-10
-6.6045e-10
-6.50708e-10
-6.6047e-10
2.40406e-09
8.07354e-12
2.8403e-12
2.36418e-09
6.10452e-12
-4.0174e-13
2.33818e-09
3.95311e-12
-5.46751e-14
2.322e-09
3.25265e-12
5.12707e-13
2.31094e-09
2.14815e-12
2.27082e-14
2.30379e-09
1.67508e-12
-7.63495e-14
2.30088e-09
5.56803e-13
-2.59326e-14
2.29767e-09
5.16219e-13
6.66653e-14
2.295e-09
-9.64039e-14
3.31179e-13
2.29191e-09
1.02423e-12
1.80359e-13
2.2919e-09
-2.64455e-13
-4.56186e-14
2.29199e-09
-7.67335e-14
4.76795e-13
2.29223e-09
1.37879e-13
-9.96272e-14
2.29073e-09
-5.5299e-13
-2.39153e-12
2.28933e-09
1.55218e-13
1.47123e-12
2.2895e-09
-2.41227e-13
2.53829e-14
2.28956e-09
-1.40854e-13
1.91491e-14
2.28861e-09
3.15559e-13
4.94016e-13
2.28793e-09
8.58181e-13
-2.81405e-13
2.2887e-09
-7.25935e-13
2.23702e-12
2.29005e-09
-3.15372e-12
2.38425e-12
2.28942e-09
1.04813e-12
-1.57361e-13
2.29063e-09
-2.50945e-12
8.38597e-13
2.28821e-09
2.75877e-13
-2.51567e-12
2.28697e-09
1.92718e-13
-8.35595e-13
2.28758e-09
1.37722e-13
-8.02789e-14
2.28759e-09
-1.99291e-13
6.62038e-14
2.28735e-09
7.28344e-14
8.60402e-14
2.28703e-09
-5.18566e-13
1.52551e-13
2.2862e-09
-5.19713e-13
-1.53412e-14
2.28496e-09
-3.7977e-13
1.46143e-12
2.28463e-09
1.00585e-13
-8.5213e-13
2.28591e-09
-1.80401e-13
-4.6943e-13
2.28661e-09
1.29434e-12
-1.78427e-12
2.28734e-09
-2.6697e-12
9.38566e-13
2.28676e-09
1.15345e-12
-2.13559e-13
2.28668e-09
7.14883e-13
-3.54109e-13
2.28527e-09
7.93647e-14
1.02919e-12
2.28491e-09
8.31323e-13
4.82204e-14
2.28482e-09
4.28449e-13
-1.01472e-13
-2.28634e-12
1.35994e-12
-1.97451e-09
5.02308e-09
2.95527e-09
2.11004e-08
-2.64966e-08
5.86355e-09
4.84804e-10
8.1253e-09
-1.22675e-08
7.94031e-10
4.08271e-10
5.66555e-10
2.00758e-10
-4.17576e-09
2.5883e-09
-8.40895e-09
-5.53932e-09
-9.21767e-09
-1.20024e-09
2.16572e-08
4.26899e-09
-3.81565e-09
-5.67072e-10
-9.23852e-10
3.00688e-10
8.5775e-10
2.78159e-09
-8.40602e-10
-5.76062e-09
4.69918e-09
1.74893e-09
-8.92896e-09
1.19389e-09
2.64696e-09
2.45963e-09
-1.26702e-08
-2.75993e-10
-7.97087e-09
-5.40484e-09
1.80338e-08
3.89843e-09
2.10337e-09
1.69311e-09
5.93197e-10
3.97698e-09
-5.78771e-10
6.55456e-10
8.45122e-10
8.97798e-11
-4.98857e-09
-2.11092e-10
-6.96322e-11
-2.89024e-10
2.89208e-10
1.17381e-10
1.63159e-10
-1.62945e-10
-1.97798e-11
8.12478e-12
-7.94738e-12
1.15845e-11
1.70963e-10
2.47414e-09
1.21182e-10