/*--------------------------------*- C++ -*----------------------------------*\
| =========                 |                                                 |
| \\      /  F ield         | OpenFOAM: The Open Source CFD Toolbox           |
|  \\    /   O peration     | Version:  5.0                                   |
|   \\  /    A nd           | Web:      www.OpenFOAM.org                      |
|    \\/     M anipulation  |                                                 |
\*---------------------------------------------------------------------------*/
FoamFile
{
    version     2.0;
    format      ascii;
    class       volScalarField;
    location    "3.5";
    object      rAU;
}
// * * * * * * * * * * * * * * * * * * * * * * * * * * * * * * * * * * * * * //

dimensions      [-1 3 1 0 0 0 0];

internalField   nonuniform List<scalar> 
9046
(
8.48694e-07
8.84768e-07
8.25209e-07
2.25798e-07
8.82177e-07
6.90282e-07
3.66325e-08
3.92285e-07
3.93662e-07
3.94697e-07
3.9573e-07
3.96763e-07
3.97795e-07
3.98826e-07
3.99857e-07
4.00886e-07
4.01916e-07
4.02944e-07
4.03972e-07
4.04999e-07
4.06025e-07
4.0705e-07
4.08076e-07
4.09099e-07
4.10122e-07
4.11145e-07
4.12167e-07
4.13188e-07
4.14208e-07
4.15228e-07
4.16246e-07
4.17265e-07
4.18282e-07
4.19298e-07
4.20314e-07
4.21328e-07
4.22342e-07
4.23356e-07
4.24368e-07
4.25379e-07
4.26391e-07
4.274e-07
4.28409e-07
4.29418e-07
4.30425e-07
4.31432e-07
4.32438e-07
4.33443e-07
4.34447e-07
4.36223e-07
8.80974e-07
8.46692e-07
8.93218e-07
8.91249e-07
8.63429e-07
6.80048e-07
4.86747e-08
1.29776e-07
3.93453e-07
3.94696e-07
3.9573e-07
3.96763e-07
3.97795e-07
3.98826e-07
3.99857e-07
4.00886e-07
4.01916e-07
4.02944e-07
4.03972e-07
4.04999e-07
4.06025e-07
4.0705e-07
4.08075e-07
4.09099e-07
4.10122e-07
4.11145e-07
4.12167e-07
4.13188e-07
4.14208e-07
4.15228e-07
4.16246e-07
4.17265e-07
4.18282e-07
4.19298e-07
4.20314e-07
4.21328e-07
4.22342e-07
4.23356e-07
4.24368e-07
4.2538e-07
4.26391e-07
4.274e-07
4.28409e-07
4.29418e-07
4.30425e-07
4.31432e-07
4.32438e-07
4.33443e-07
4.34447e-07
4.36223e-07
6.40959e-07
7.60035e-07
6.53498e-07
7.26146e-07
6.07188e-07
6.91541e-07
6.91182e-07
1.2972e-07
3.93452e-07
3.94696e-07
3.9573e-07
3.96763e-07
3.97795e-07
3.98826e-07
3.99857e-07
4.00886e-07
4.01916e-07
4.02944e-07
4.03972e-07
4.04999e-07
4.06025e-07
4.0705e-07
4.08075e-07
4.09099e-07
4.10122e-07
4.11145e-07
4.12167e-07
4.13188e-07
4.14208e-07
4.15228e-07
4.16246e-07
4.17265e-07
4.18282e-07
4.19298e-07
4.20314e-07
4.21328e-07
4.22342e-07
4.23356e-07
4.24368e-07
4.2538e-07
4.26391e-07
4.274e-07
4.28409e-07
4.29418e-07
4.30425e-07
4.31432e-07
4.32438e-07
4.33443e-07
4.34447e-07
4.36223e-07
7.78557e-07
8.94143e-07
6.10186e-07
8.62429e-07
8.87071e-07
6.87757e-07
7.01478e-07
3.52192e-08
3.93452e-07
3.94696e-07
3.9573e-07
3.96763e-07
3.97795e-07
3.98826e-07
3.99857e-07
4.00886e-07
4.01916e-07
4.02944e-07
4.03972e-07
4.04999e-07
4.06025e-07
4.0705e-07
4.08076e-07
4.09099e-07
4.10122e-07
4.11145e-07
4.12167e-07
4.13188e-07
4.14208e-07
4.15228e-07
4.16246e-07
4.17265e-07
4.18282e-07
4.19298e-07
4.20314e-07
4.21328e-07
4.22342e-07
4.23356e-07
4.24368e-07
4.25379e-07
4.26391e-07
4.274e-07
4.28409e-07
4.29418e-07
4.30425e-07
4.31432e-07
4.32438e-07
4.33443e-07
4.34447e-07
4.36223e-07
9.52599e-07
8.92457e-07
6.15329e-07
8.87854e-07
6.17514e-07
6.76448e-07
9.02877e-07
3.6489e-08
3.93452e-07
3.94696e-07
3.9573e-07
3.96763e-07
3.97795e-07
3.98826e-07
3.99857e-07
4.00886e-07
4.01916e-07
4.02944e-07
4.03972e-07
4.04999e-07
4.06025e-07
4.0705e-07
4.08076e-07
4.09099e-07
4.10122e-07
4.11145e-07
4.12167e-07
4.13188e-07
4.14208e-07
4.15228e-07
4.16246e-07
4.17265e-07
4.18282e-07
4.19298e-07
4.20314e-07
4.21328e-07
4.22342e-07
4.23356e-07
4.24368e-07
4.25379e-07
4.26391e-07
4.274e-07
4.28409e-07
4.29418e-07
4.30425e-07
4.31432e-07
4.32438e-07
4.33443e-07
4.34447e-07
4.36223e-07
8.834e-07
5.93128e-07
6.48948e-07
8.56742e-07
6.39484e-07
6.40695e-07
9.03039e-07
3.87854e-08
3.93454e-07
3.94697e-07
3.95731e-07
3.96763e-07
3.97795e-07
3.98826e-07
3.99857e-07
4.00886e-07
4.01916e-07
4.02944e-07
4.03972e-07
4.04999e-07
4.06025e-07
4.0705e-07
4.08076e-07
4.09099e-07
4.10122e-07
4.11145e-07
4.12167e-07
4.13188e-07
4.14208e-07
4.15228e-07
4.16246e-07
4.17265e-07
4.18282e-07
4.19298e-07
4.20314e-07
4.21328e-07
4.22342e-07
4.23356e-07
4.24368e-07
4.25379e-07
4.26391e-07
4.274e-07
4.28409e-07
4.29418e-07
4.30425e-07
4.31432e-07
4.32438e-07
4.33443e-07
4.34447e-07
4.36223e-07
8.7929e-07
5.09283e-07
3.00917e-07
6.57345e-07
5.9485e-07
6.78475e-07
7.00366e-07
3.54375e-08
3.93455e-07
3.94698e-07
3.95731e-07
3.96763e-07
3.97795e-07
3.98827e-07
3.99857e-07
4.00887e-07
4.01916e-07
4.02944e-07
4.03972e-07
4.04999e-07
4.06025e-07
4.0705e-07
4.08076e-07
4.09099e-07
4.10122e-07
4.11145e-07
4.12167e-07
4.13188e-07
4.14208e-07
4.15228e-07
4.16246e-07
4.17265e-07
4.18282e-07
4.19298e-07
4.20314e-07
4.21328e-07
4.22342e-07
4.23356e-07
4.24368e-07
4.25379e-07
4.26391e-07
4.274e-07
4.28409e-07
4.29418e-07
4.30425e-07
4.31432e-07
4.32438e-07
4.33443e-07
4.34447e-07
4.36223e-07
8.84372e-07
8.79977e-07
9.19404e-07
8.6906e-07
8.94431e-07
6.77997e-07
6.99066e-07
1.29633e-07
3.93455e-07
3.94698e-07
3.95731e-07
3.96764e-07
3.97795e-07
3.98827e-07
3.99857e-07
4.00887e-07
4.01916e-07
4.02944e-07
4.03972e-07
4.04999e-07
4.06025e-07
4.0705e-07
4.08076e-07
4.09099e-07
4.10122e-07
4.11145e-07
4.12167e-07
4.13188e-07
4.14208e-07
4.15228e-07
4.16246e-07
4.17265e-07
4.18282e-07
4.19298e-07
4.20314e-07
4.21328e-07
4.22342e-07
4.23356e-07
4.24368e-07
4.25379e-07
4.26391e-07
4.274e-07
4.28409e-07
4.29418e-07
4.30425e-07
4.31432e-07
4.32438e-07
4.33443e-07
4.34447e-07
4.36223e-07
7.72529e-07
8.85681e-07
9.25183e-07
8.9113e-07
4.07826e-07
6.10335e-07
6.88877e-07
1.29503e-07
3.93455e-07
3.94698e-07
3.95731e-07
3.96763e-07
3.97795e-07
3.98827e-07
3.99857e-07
4.00887e-07
4.01916e-07
4.02944e-07
4.03972e-07
4.04999e-07
4.06025e-07
4.0705e-07
4.08076e-07
4.09099e-07
4.10122e-07
4.11145e-07
4.12167e-07
4.13188e-07
4.14208e-07
4.15228e-07
4.16246e-07
4.17265e-07
4.18282e-07
4.19298e-07
4.20314e-07
4.21328e-07
4.22342e-07
4.23356e-07
4.24368e-07
4.2538e-07
4.26391e-07
4.274e-07
4.28409e-07
4.29418e-07
4.30425e-07
4.31432e-07
4.32438e-07
4.33443e-07
4.34447e-07
4.36223e-07
6.18408e-07
8.22082e-07
8.36933e-07
8.72319e-07
8.9674e-07
6.88208e-07
4.98246e-08
3.92287e-07
3.93663e-07
3.94697e-07
3.95731e-07
3.96763e-07
3.97795e-07
3.98827e-07
3.99857e-07
4.00886e-07
4.01916e-07
4.02944e-07
4.03972e-07
4.04999e-07
4.06025e-07
4.0705e-07
4.08076e-07
4.09099e-07
4.10122e-07
4.11145e-07
4.12167e-07
4.13188e-07
4.14208e-07
4.15228e-07
4.16246e-07
4.17265e-07
4.18282e-07
4.19298e-07
4.20314e-07
4.21328e-07
4.22342e-07
4.23356e-07
4.24368e-07
4.25379e-07
4.26391e-07
4.274e-07
4.28409e-07
4.29418e-07
4.30425e-07
4.31432e-07
4.32438e-07
4.33443e-07
4.34447e-07
4.36223e-07
9.62983e-07
9.096e-07
6.45924e-07
7.09782e-07
2.45581e-07
7.5393e-07
5.44749e-08
5.04673e-07
5.06385e-07
5.07527e-07
5.08665e-07
5.09803e-07
5.10939e-07
5.12072e-07
5.13205e-07
5.14336e-07
5.15464e-07
5.16592e-07
5.17718e-07
5.18842e-07
5.19964e-07
5.21086e-07
5.22204e-07
5.23322e-07
5.24439e-07
5.25552e-07
5.26665e-07
5.27777e-07
5.28885e-07
5.29994e-07
5.311e-07
5.32204e-07
5.33307e-07
5.34409e-07
5.35507e-07
5.36606e-07
5.37702e-07
5.38796e-07
5.39889e-07
5.40981e-07
5.4207e-07
5.43158e-07
5.44245e-07
5.45328e-07
5.46412e-07
5.47493e-07
5.48572e-07
5.4965e-07
5.50727e-07
5.53041e-07
9.048e-07
8.79221e-07
8.3835e-07
9.2566e-07
8.69885e-07
6.64995e-07
7.18403e-08
1.84248e-07
5.06037e-07
5.07526e-07
5.08665e-07
5.09803e-07
5.10939e-07
5.12072e-07
5.13205e-07
5.14336e-07
5.15464e-07
5.16592e-07
5.17718e-07
5.18842e-07
5.19964e-07
5.21086e-07
5.22204e-07
5.23322e-07
5.24439e-07
5.25552e-07
5.26665e-07
5.27777e-07
5.28885e-07
5.29994e-07
5.311e-07
5.32204e-07
5.33307e-07
5.34409e-07
5.35507e-07
5.36606e-07
5.37702e-07
5.38796e-07
5.39889e-07
5.40981e-07
5.4207e-07
5.43158e-07
5.44245e-07
5.45328e-07
5.46412e-07
5.47493e-07
5.48572e-07
5.4965e-07
5.50727e-07
5.53041e-07
8.85227e-07
5.83255e-07
5.87187e-07
3.13799e-07
5.52461e-07
7.22357e-07
7.66509e-07
1.83946e-07
5.06035e-07
5.07525e-07
5.08664e-07
5.09803e-07
5.10939e-07
5.12072e-07
5.13205e-07
5.14336e-07
5.15464e-07
5.16592e-07
5.17718e-07
5.18842e-07
5.19964e-07
5.21086e-07
5.22204e-07
5.23322e-07
5.24439e-07
5.25552e-07
5.26665e-07
5.27777e-07
5.28885e-07
5.29993e-07
5.311e-07
5.32204e-07
5.33307e-07
5.34409e-07
5.35508e-07
5.36606e-07
5.37702e-07
5.38796e-07
5.39889e-07
5.40981e-07
5.4207e-07
5.43158e-07
5.44245e-07
5.45328e-07
5.46412e-07
5.47493e-07
5.48572e-07
5.4965e-07
5.50727e-07
5.53041e-07
7.99124e-07
9.17248e-07
7.32945e-07
8.88318e-07
9.11283e-07
7.29155e-07
7.75787e-07
5.202e-08
5.06033e-07
5.07525e-07
5.08664e-07
5.09802e-07
5.10939e-07
5.12072e-07
5.13205e-07
5.14336e-07
5.15464e-07
5.16592e-07
5.17718e-07
5.18842e-07
5.19964e-07
5.21086e-07
5.22204e-07
5.23322e-07
5.24439e-07
5.25552e-07
5.26665e-07
5.27777e-07
5.28885e-07
5.29994e-07
5.311e-07
5.32204e-07
5.33307e-07
5.34409e-07
5.35507e-07
5.36606e-07
5.37702e-07
5.38796e-07
5.39889e-07
5.40981e-07
5.4207e-07
5.43158e-07
5.44245e-07
5.45328e-07
5.46412e-07
5.47493e-07
5.48572e-07
5.4965e-07
5.50727e-07
5.53041e-07
9.35188e-07
8.92167e-07
5.00987e-07
7.55765e-07
5.59818e-07
6.76454e-07
9.31624e-07
5.42554e-08
5.06035e-07
5.07525e-07
5.08665e-07
5.09803e-07
5.10939e-07
5.12072e-07
5.13205e-07
5.14336e-07
5.15464e-07
5.16592e-07
5.17718e-07
5.18842e-07
5.19964e-07
5.21086e-07
5.22204e-07
5.23322e-07
5.24439e-07
5.25552e-07
5.26665e-07
5.27777e-07
5.28885e-07
5.29994e-07
5.311e-07
5.32204e-07
5.33307e-07
5.34409e-07
5.35508e-07
5.36606e-07
5.37702e-07
5.38796e-07
5.39889e-07
5.40981e-07
5.4207e-07
5.43158e-07
5.44245e-07
5.45329e-07
5.46412e-07
5.47493e-07
5.48572e-07
5.4965e-07
5.50727e-07
5.53041e-07
4.90173e-07
6.57469e-07
8.84515e-07
8.05943e-07
6.33138e-07
4.8845e-07
9.3216e-07
5.79493e-08
5.06039e-07
5.07527e-07
5.08666e-07
5.09803e-07
5.10939e-07
5.12072e-07
5.13205e-07
5.14336e-07
5.15464e-07
5.16592e-07
5.17718e-07
5.18842e-07
5.19964e-07
5.21086e-07
5.22204e-07
5.23322e-07
5.24439e-07
5.25552e-07
5.26665e-07
5.27777e-07
5.28885e-07
5.29994e-07
5.311e-07
5.32204e-07
5.33307e-07
5.34409e-07
5.35508e-07
5.36606e-07
5.37702e-07
5.38796e-07
5.39889e-07
5.40981e-07
5.4207e-07
5.43158e-07
5.44245e-07
5.45329e-07
5.46412e-07
5.47493e-07
5.48572e-07
5.4965e-07
5.50727e-07
5.53041e-07
8.31089e-07
1.80565e-07
1.93529e-07
7.9429e-07
6.87604e-07
7.26323e-07
7.73121e-07
5.26117e-08
5.06041e-07
5.07529e-07
5.08667e-07
5.09804e-07
5.1094e-07
5.12073e-07
5.13205e-07
5.14336e-07
5.15464e-07
5.16592e-07
5.17718e-07
5.18842e-07
5.19964e-07
5.21086e-07
5.22204e-07
5.23322e-07
5.24439e-07
5.25552e-07
5.26665e-07
5.27777e-07
5.28885e-07
5.29994e-07
5.311e-07
5.32204e-07
5.33307e-07
5.34409e-07
5.35507e-07
5.36606e-07
5.37702e-07
5.38796e-07
5.39889e-07
5.40981e-07
5.4207e-07
5.43158e-07
5.44245e-07
5.45329e-07
5.46412e-07
5.47493e-07
5.48572e-07
5.4965e-07
5.50727e-07
5.53041e-07
5.56502e-07
8.38334e-07
8.40065e-07
6.73661e-07
7.99103e-07
7.33036e-07
7.73894e-07
1.83837e-07
5.06042e-07
5.0753e-07
5.08667e-07
5.09804e-07
5.1094e-07
5.12073e-07
5.13205e-07
5.14336e-07
5.15464e-07
5.16592e-07
5.17718e-07
5.18842e-07
5.19965e-07
5.21086e-07
5.22204e-07
5.23322e-07
5.24439e-07
5.25552e-07
5.26665e-07
5.27777e-07
5.28885e-07
5.29994e-07
5.311e-07
5.32204e-07
5.33307e-07
5.34409e-07
5.35508e-07
5.36606e-07
5.37702e-07
5.38796e-07
5.39889e-07
5.40981e-07
5.4207e-07
5.43158e-07
5.44245e-07
5.45329e-07
5.46412e-07
5.47493e-07
5.48572e-07
5.4965e-07
5.50727e-07
5.53041e-07
3.96637e-07
9.40917e-07
6.96333e-07
8.85079e-07
5.79303e-07
6.79575e-07
7.21412e-07
1.8395e-07
5.06042e-07
5.0753e-07
5.08667e-07
5.09804e-07
5.1094e-07
5.12073e-07
5.13205e-07
5.14336e-07
5.15464e-07
5.16592e-07
5.17718e-07
5.18842e-07
5.19965e-07
5.21086e-07
5.22204e-07
5.23322e-07
5.24439e-07
5.25552e-07
5.26665e-07
5.27777e-07
5.28885e-07
5.29994e-07
5.311e-07
5.32204e-07
5.33307e-07
5.34409e-07
5.35508e-07
5.36606e-07
5.37702e-07
5.38796e-07
5.39889e-07
5.40981e-07
5.4207e-07
5.43158e-07
5.44245e-07
5.45329e-07
5.46412e-07
5.47493e-07
5.48572e-07
5.4965e-07
5.50727e-07
5.53041e-07
7.77725e-07
8.25768e-07
8.64514e-07
8.15145e-07
7.21731e-07
7.21554e-07
7.38873e-08
5.04679e-07
5.06386e-07
5.07528e-07
5.08666e-07
5.09804e-07
5.10939e-07
5.12073e-07
5.13205e-07
5.14336e-07
5.15464e-07
5.16592e-07
5.17718e-07
5.18842e-07
5.19964e-07
5.21086e-07
5.22204e-07
5.23322e-07
5.24439e-07
5.25552e-07
5.26665e-07
5.27777e-07
5.28885e-07
5.29994e-07
5.311e-07
5.32204e-07
5.33307e-07
5.34409e-07
5.35507e-07
5.36606e-07
5.37702e-07
5.38796e-07
5.39889e-07
5.40981e-07
5.4207e-07
5.43158e-07
5.44245e-07
5.45329e-07
5.46412e-07
5.47493e-07
5.48572e-07
5.4965e-07
5.50727e-07
5.53041e-07
9.55508e-07
9.4239e-07
9.27779e-07
9.1595e-07
4.07859e-07
6.57898e-07
5.42906e-08
3.92285e-07
3.93662e-07
3.94696e-07
3.9573e-07
3.96763e-07
3.97795e-07
3.98826e-07
3.99857e-07
4.00886e-07
4.01916e-07
4.02944e-07
4.03972e-07
4.04999e-07
4.06025e-07
4.0705e-07
4.08075e-07
4.09099e-07
4.10122e-07
4.11145e-07
4.12167e-07
4.13188e-07
4.14208e-07
4.15228e-07
4.16246e-07
4.17265e-07
4.18282e-07
4.19298e-07
4.20314e-07
4.21328e-07
4.22342e-07
4.23356e-07
4.24368e-07
4.25379e-07
4.26391e-07
4.274e-07
4.28409e-07
4.29418e-07
4.30425e-07
4.31432e-07
4.32438e-07
4.33443e-07
4.34447e-07
4.36223e-07
9.47948e-07
9.36452e-07
8.90039e-07
8.50862e-07
7.34087e-07
6.82134e-07
7.16498e-08
1.84253e-07
3.93453e-07
3.94696e-07
3.9573e-07
3.96763e-07
3.97795e-07
3.98826e-07
3.99857e-07
4.00886e-07
4.01916e-07
4.02944e-07
4.03972e-07
4.04999e-07
4.06025e-07
4.0705e-07
4.08075e-07
4.09099e-07
4.10122e-07
4.11145e-07
4.12167e-07
4.13188e-07
4.14208e-07
4.15228e-07
4.16246e-07
4.17265e-07
4.18282e-07
4.19298e-07
4.20314e-07
4.21328e-07
4.22342e-07
4.23356e-07
4.24368e-07
4.25379e-07
4.26391e-07
4.274e-07
4.28409e-07
4.29418e-07
4.30425e-07
4.31432e-07
4.32438e-07
4.33443e-07
4.34447e-07
4.36223e-07
9.15762e-07
5.96095e-07
8.65734e-07
6.27512e-07
3.36501e-07
7.23239e-07
7.67799e-07
1.83951e-07
3.93452e-07
3.94696e-07
3.9573e-07
3.96763e-07
3.97795e-07
3.98826e-07
3.99857e-07
4.00886e-07
4.01916e-07
4.02944e-07
4.03972e-07
4.04999e-07
4.06025e-07
4.0705e-07
4.08075e-07
4.09099e-07
4.10122e-07
4.11145e-07
4.12167e-07
4.13188e-07
4.14208e-07
4.15228e-07
4.16246e-07
4.17265e-07
4.18282e-07
4.19298e-07
4.20314e-07
4.21328e-07
4.22342e-07
4.23356e-07
4.24368e-07
4.25379e-07
4.26391e-07
4.274e-07
4.28409e-07
4.29418e-07
4.30425e-07
4.31432e-07
4.32438e-07
4.33443e-07
4.34447e-07
4.36223e-07
9.28748e-07
9.05404e-07
9.00409e-07
9.2461e-07
5.13598e-07
7.07177e-07
7.76222e-07
5.20203e-08
3.93452e-07
3.94696e-07
3.9573e-07
3.96763e-07
3.97795e-07
3.98826e-07
3.99857e-07
4.00886e-07
4.01916e-07
4.02944e-07
4.03972e-07
4.04999e-07
4.06025e-07
4.0705e-07
4.08075e-07
4.09099e-07
4.10122e-07
4.11145e-07
4.12167e-07
4.13188e-07
4.14208e-07
4.15228e-07
4.16246e-07
4.17265e-07
4.18282e-07
4.19298e-07
4.20314e-07
4.21328e-07
4.22342e-07
4.23356e-07
4.24368e-07
4.25379e-07
4.26391e-07
4.274e-07
4.28409e-07
4.29418e-07
4.30425e-07
4.31432e-07
4.32438e-07
4.33443e-07
4.34447e-07
4.36223e-07
9.20439e-07
8.9712e-07
4.95036e-07
7.87047e-07
4.72651e-07
6.53741e-07
9.31725e-07
5.41866e-08
3.93452e-07
3.94696e-07
3.9573e-07
3.96763e-07
3.97795e-07
3.98826e-07
3.99857e-07
4.00886e-07
4.01916e-07
4.02944e-07
4.03972e-07
4.04999e-07
4.06025e-07
4.0705e-07
4.08075e-07
4.09099e-07
4.10122e-07
4.11145e-07
4.12167e-07
4.13188e-07
4.14208e-07
4.15228e-07
4.16246e-07
4.17265e-07
4.18282e-07
4.19298e-07
4.20314e-07
4.21328e-07
4.22342e-07
4.23356e-07
4.24368e-07
4.25379e-07
4.26391e-07
4.274e-07
4.28409e-07
4.29418e-07
4.30425e-07
4.31432e-07
4.32438e-07
4.33443e-07
4.34447e-07
4.36223e-07
5.92987e-07
6.28826e-07
8.3587e-07
7.51352e-07
7.66017e-07
7.03834e-07
9.32059e-07
5.78944e-08
3.93454e-07
3.94697e-07
3.95731e-07
3.96763e-07
3.97795e-07
3.98826e-07
3.99857e-07
4.00886e-07
4.01916e-07
4.02944e-07
4.03972e-07
4.04999e-07
4.06025e-07
4.0705e-07
4.08075e-07
4.09099e-07
4.10122e-07
4.11145e-07
4.12167e-07
4.13188e-07
4.14208e-07
4.15228e-07
4.16246e-07
4.17265e-07
4.18282e-07
4.19298e-07
4.20314e-07
4.21328e-07
4.22342e-07
4.23356e-07
4.24368e-07
4.25379e-07
4.26391e-07
4.274e-07
4.28409e-07
4.29418e-07
4.30425e-07
4.31432e-07
4.32438e-07
4.33443e-07
4.34447e-07
4.36223e-07
8.56454e-07
7.97974e-07
8.4392e-07
6.8754e-07
8.6921e-07
7.10045e-07
7.73335e-07
5.25677e-08
3.93455e-07
3.94698e-07
3.95731e-07
3.96763e-07
3.97795e-07
3.98827e-07
3.99857e-07
4.00886e-07
4.01916e-07
4.02944e-07
4.03972e-07
4.04999e-07
4.06025e-07
4.0705e-07
4.08075e-07
4.09099e-07
4.10122e-07
4.11145e-07
4.12167e-07
4.13188e-07
4.14208e-07
4.15228e-07
4.16246e-07
4.17265e-07
4.18282e-07
4.19298e-07
4.20314e-07
4.21328e-07
4.22342e-07
4.23356e-07
4.24368e-07
4.25379e-07
4.26391e-07
4.274e-07
4.28409e-07
4.29418e-07
4.30425e-07
4.31432e-07
4.32438e-07
4.33443e-07
4.34447e-07
4.36223e-07
8.21166e-07
5.55283e-07
4.69291e-07
6.56456e-07
7.45323e-07
7.43584e-07
7.75848e-07
1.83841e-07
3.93455e-07
3.94698e-07
3.95731e-07
3.96764e-07
3.97795e-07
3.98827e-07
3.99857e-07
4.00886e-07
4.01916e-07
4.02944e-07
4.03972e-07
4.04999e-07
4.06025e-07
4.0705e-07
4.08075e-07
4.09099e-07
4.10122e-07
4.11145e-07
4.12167e-07
4.13188e-07
4.14208e-07
4.15228e-07
4.16246e-07
4.17265e-07
4.18282e-07
4.19298e-07
4.20314e-07
4.21328e-07
4.22342e-07
4.23356e-07
4.24368e-07
4.25379e-07
4.26391e-07
4.274e-07
4.28409e-07
4.29418e-07
4.30425e-07
4.31432e-07
4.32438e-07
4.33443e-07
4.34447e-07
4.36223e-07
7.24685e-07
8.9205e-07
5.46968e-07
6.93024e-07
8.56105e-07
6.31417e-07
7.23305e-07
1.83954e-07
3.93455e-07
3.94698e-07
3.95731e-07
3.96763e-07
3.97795e-07
3.98827e-07
3.99857e-07
4.00886e-07
4.01916e-07
4.02944e-07
4.03972e-07
4.04999e-07
4.06025e-07
4.0705e-07
4.08075e-07
4.09099e-07
4.10122e-07
4.11145e-07
4.12167e-07
4.13188e-07
4.14208e-07
4.15228e-07
4.16246e-07
4.17265e-07
4.18282e-07
4.19298e-07
4.20314e-07
4.21328e-07
4.22342e-07
4.23356e-07
4.24368e-07
4.25379e-07
4.26391e-07
4.274e-07
4.28409e-07
4.29418e-07
4.30425e-07
4.31432e-07
4.32438e-07
4.33443e-07
4.34447e-07
4.36223e-07
9.34827e-07
9.28866e-07
9.14893e-07
8.6105e-07
5.121e-07
7.52182e-07
7.38243e-08
3.92287e-07
3.93663e-07
3.94697e-07
3.95731e-07
3.96763e-07
3.97795e-07
3.98826e-07
3.99857e-07
4.00886e-07
4.01916e-07
4.02944e-07
4.03972e-07
4.04999e-07
4.06025e-07
4.0705e-07
4.08075e-07
4.09099e-07
4.10122e-07
4.11145e-07
4.12167e-07
4.13188e-07
4.14208e-07
4.15228e-07
4.16246e-07
4.17265e-07
4.18282e-07
4.19298e-07
4.20314e-07
4.21328e-07
4.22342e-07
4.23356e-07
4.24368e-07
4.25379e-07
4.26391e-07
4.274e-07
4.28409e-07
4.29418e-07
4.30425e-07
4.31432e-07
4.32438e-07
4.33443e-07
4.34447e-07
4.36223e-07
1.152e-07
6.87314e-07
1.86046e-07
7.56189e-07
1.6206e-07
7.30004e-07
2.54315e-07
5.4697e-07
4.19359e-07
6.99958e-07
6.9102e-07
6.28598e-07
4.27423e-07
7.74493e-07
7.00681e-07
6.82234e-07
7.00408e-07
7.33799e-07
7.7579e-07
7.084e-07
7.76371e-07
7.00593e-07
6.75232e-07
7.007e-07
7.25189e-07
7.75353e-07
6.35969e-07
7.71848e-07
6.9793e-07
6.76565e-07
7.00246e-07
6.81923e-07
7.7153e-07
7.43629e-07
7.75324e-07
6.99607e-07
6.77464e-07
7.00089e-07
6.06995e-07
7.76184e-07
7.22467e-07
7.7509e-07
6.99257e-07
6.75318e-07
7.01057e-07
7.27883e-07
7.7352e-07
6.8135e-07
7.74394e-07
6.99551e-07
6.60261e-07
6.99927e-07
7.29894e-07
7.7274e-07
6.01812e-07
7.75124e-07
7.00168e-07
5.44246e-07
6.92273e-07
6.81363e-07
7.7425e-07
6.42717e-07
7.62024e-07
4.9778e-07
6.67706e-07
1.24821e-07
7.38726e-07
5.71711e-07
6.34783e-07
1.75123e-07
1.61962e-07
7.20555e-07
2.53763e-07
7.1408e-07
1.61983e-07
7.26381e-07
2.51616e-07
6.26915e-07
5.02686e-07
7.73062e-07
6.6461e-07
6.28526e-07
6.56136e-07
7.7213e-07
7.75261e-07
6.9025e-07
7.76353e-07
7.1522e-07
7.74373e-07
6.45413e-07
7.76611e-07
7.75516e-07
6.27114e-07
7.70471e-07
7.1687e-07
7.75764e-07
5.47367e-07
7.73551e-07
7.72013e-07
7.4233e-07
7.74437e-07
6.64308e-07
7.71142e-07
7.25709e-07
7.76904e-07
7.76104e-07
7.19006e-07
7.74134e-07
6.78762e-07
7.7489e-07
7.24417e-07
7.75585e-07
7.70379e-07
6.69548e-07
7.75748e-07
6.98753e-07
7.74931e-07
6.46491e-07
7.74521e-07
7.72992e-07
6.14282e-07
7.75414e-07
7.25681e-07
7.74641e-07
6.23243e-07
7.74042e-07
7.73842e-07
6.14045e-07
7.60712e-07
5.7194e-07
7.7444e-07
6.33468e-07
7.6141e-07
5.67423e-07
6.45597e-07
1.75086e-07
7.57774e-07
5.64332e-07
6.43506e-07
1.75372e-07
1.62005e-07
6.98976e-07
2.50978e-07
6.79813e-07
1.14402e-07
6.83816e-07
1.84342e-07
6.32661e-07
6.69859e-07
7.73631e-07
6.74521e-07
5.60628e-07
6.74154e-07
6.99505e-07
7.74906e-07
6.75735e-07
7.76386e-07
6.6674e-07
7.00898e-07
6.92828e-07
7.00692e-07
7.75291e-07
4.06245e-07
7.72516e-07
6.30003e-07
6.99056e-07
4.43304e-07
7.00952e-07
7.71042e-07
7.1924e-07
7.76066e-07
6.82263e-07
6.98802e-07
6.87403e-07
6.99973e-07
7.75649e-07
7.2314e-07
7.7558e-07
5.8327e-07
7.00098e-07
6.82367e-07
7.00352e-07
7.73393e-07
6.65584e-07
7.73246e-07
6.76283e-07
6.99215e-07
6.83283e-07
6.99274e-07
7.74546e-07
6.73077e-07
7.73798e-07
6.81991e-07
7.00197e-07
6.76456e-07
7.00154e-07
7.74718e-07
6.44928e-07
7.62731e-07
5.01982e-07
7.00095e-07
6.7333e-07
6.92587e-07
5.65597e-07
6.45821e-07
1.75303e-07
6.89254e-07
4.83726e-07
6.53605e-07
1.24143e-07
8.80624e-07
8.71877e-07
9.00514e-07
7.67362e-07
7.59917e-07
8.93962e-07
9.02698e-07
7.68932e-07
6.96087e-07
6.87081e-07
7.48842e-07
6.32222e-07
6.95894e-07
7.64041e-07
1.29567e-07
3.99623e-08
1.29566e-07
5.42565e-08
1.83833e-07
5.94995e-08
1.83831e-07
8.94249e-07
8.32383e-07
6.95269e-07
8.79804e-07
9.03522e-07
8.84476e-07
6.95618e-07
7.39107e-07
6.91383e-07
6.10247e-07
7.67062e-07
7.6148e-07
6.70803e-07
6.84885e-07
1.29418e-07
2.92312e-07
3.51617e-08
7.17797e-08
1.83533e-07
3.7477e-07
5.19785e-08
4.39889e-07
6.40117e-07
6.26427e-07
4.69626e-07
6.36298e-07
5.55783e-07
7.34333e-07
7.62082e-07
6.94188e-07
6.43978e-07
7.54363e-07
7.6493e-07
6.99073e-07
6.94733e-07
3.52763e-08
6.99108e-07
3.55886e-08
7.66669e-07
5.19795e-08
7.76902e-07
5.26869e-08
8.58935e-07
8.50497e-07
8.78562e-07
8.6176e-07
8.12683e-07
8.09364e-07
8.29665e-07
5.21599e-07
6.89428e-07
6.74419e-07
7.44473e-07
7.44706e-07
7.19626e-07
3.97334e-07
3.88089e-08
7.00198e-07
7.95226e-08
7.76231e-07
5.7461e-08
7.72431e-07
1.14806e-07
8.46681e-07
6.27107e-07
4.64429e-07
2.28968e-07
3.92394e-07
4.09213e-07
3.83546e-07
7.56827e-07
6.96576e-07
6.48308e-07
7.20333e-07
7.68767e-07
6.7137e-07
6.91206e-07
1.05716e-07
9.02976e-07
1.60056e-07
9.32301e-07
1.50662e-07
9.32518e-07
2.20288e-07
3.42884e-07
8.77236e-07
8.7989e-07
4.8482e-07
3.42654e-07
8.9756e-07
9.1378e-07
7.12092e-07
6.94408e-07
3.92437e-07
6.84439e-07
7.62181e-07
5.25926e-07
6.33365e-07
1.64488e-07
9.02747e-07
1.02611e-07
9.3229e-07
2.25704e-07
9.31602e-07
1.45929e-07
6.50674e-07
6.51146e-07
2.90233e-07
5.7708e-07
5.35772e-07
5.87644e-07
7.0405e-07
7.66573e-07
6.91882e-07
6.23709e-07
7.53016e-07
7.65866e-07
6.85231e-07
6.94762e-07
7.5271e-08
7.01257e-07
3.89299e-08
7.70402e-07
1.08842e-07
7.75868e-07
5.76326e-08
8.69234e-07
5.69358e-07
6.48588e-07
7.12285e-07
7.45058e-07
7.7091e-07
5.57729e-07
7.60422e-07
6.92429e-07
6.87081e-07
7.12665e-07
7.56902e-07
6.94262e-07
6.91661e-07
3.57027e-08
6.94335e-07
3.50567e-08
7.74133e-07
5.29049e-08
7.69424e-07
5.19822e-08
3.10306e-07
8.38596e-07
8.53587e-07
4.42804e-07
3.02535e-07
9.27145e-07
9.03378e-07
6.26965e-07
6.93945e-07
4.21069e-07
6.7293e-07
7.64035e-07
4.92162e-07
5.34377e-07
3.52088e-08
6.61503e-08
1.29424e-07
7.29328e-07
5.19791e-08
9.61063e-08
1.83546e-07
9.00216e-07
8.26794e-07
8.79881e-07
8.15044e-07
8.8191e-07
7.09278e-07
9.10863e-07
7.69365e-07
6.95208e-07
6.6262e-07
7.35951e-07
7.68409e-07
6.87023e-07
6.97123e-07
1.29567e-07
3.67574e-08
1.29567e-07
7.37624e-08
1.83834e-07
5.44342e-08
1.83834e-07
4.8358e-07
8.71361e-07
8.65899e-07
2.58395e-07
7.20691e-07
8.57403e-07
9.00529e-07
7.30893e-07
7.47804e-07
3.52609e-07
7.52717e-07
7.26902e-07
4.20457e-07
7.44203e-07
1.83828e-07
5.95813e-08
1.83825e-07
5.46417e-08
1.83828e-07
5.96511e-08
1.83825e-07
8.74533e-07
8.19526e-07
6.94785e-07
7.62317e-07
8.77137e-07
7.42537e-07
6.73501e-07
6.72219e-07
7.66355e-07
4.076e-07
6.68512e-07
6.8175e-07
7.59395e-07
4.06511e-07
1.83527e-07
3.73961e-07
5.19779e-08
7.17787e-08
1.83527e-07
3.68404e-07
5.19779e-08
4.15096e-07
6.19463e-07
7.0605e-07
6.29879e-07
6.99258e-07
2.40718e-07
5.44023e-07
7.43981e-07
7.64787e-07
4.96295e-07
7.17126e-07
7.55641e-07
7.64372e-07
4.89294e-07
5.1979e-08
7.7684e-07
5.27325e-08
7.67702e-07
5.1979e-08
7.77262e-07
5.27316e-08
8.14072e-07
9.06471e-07
8.80857e-07
7.7269e-07
7.27648e-07
8.26391e-07
6.3713e-07
5.63839e-07
7.01609e-07
6.62224e-07
7.12263e-07
6.06504e-07
7.08631e-07
6.70808e-07
5.75182e-08
7.74476e-07
1.14786e-07
7.75814e-07
5.7511e-08
7.71683e-07
1.14784e-07
6.6543e-07
5.83729e-07
4.28945e-07
5.26231e-07
3.2241e-07
4.3528e-07
4.19273e-07
7.3904e-07
7.52319e-07
6.72547e-07
7.00995e-07
7.35474e-07
7.51318e-07
5.75375e-07
1.50788e-07
9.32243e-07
2.19982e-07
9.32244e-07
1.50912e-07
9.32076e-07
2.19685e-07
3.70507e-07
7.67884e-07
8.39491e-07
5.97222e-07
4.37816e-07
6.07008e-07
8.91751e-07
7.63483e-07
7.47662e-07
4.98969e-07
4.77833e-07
7.61637e-07
7.45723e-07
4.60687e-07
2.25755e-07
9.31683e-07
1.45946e-07
9.31836e-07
2.25261e-07
9.31446e-07
1.45892e-07
5.60616e-07
5.19624e-07
4.75662e-07
8.27949e-07
8.43608e-07
3.308e-07
6.42348e-07
7.65721e-07
7.42996e-07
5.9799e-07
6.93497e-07
7.663e-07
7.37053e-07
5.9069e-07
1.08851e-07
7.757e-07
5.76967e-08
7.75877e-07
1.08818e-07
7.75492e-07
5.76907e-08
2.22818e-07
4.49333e-07
4.16543e-07
5.64565e-07
3.61064e-07
6.89978e-07
2.94628e-07
7.64593e-07
7.44988e-07
4.47773e-07
7.20983e-07
7.53855e-07
7.47895e-07
4.12866e-07
5.29574e-08
7.69368e-07
5.19819e-08
7.75689e-07
5.29591e-08
7.68696e-07
5.19819e-08
2.83916e-07
8.15763e-07
5.39747e-07
8.65138e-07
3.33488e-07
8.64408e-07
5.55057e-07
6.55419e-07
7.34091e-07
2.61828e-07
6.16912e-07
6.41203e-07
7.25448e-07
2.60689e-07
5.19786e-08
9.61217e-08
1.83543e-07
7.17561e-07
5.19788e-08
9.60831e-08
1.83543e-07
7.15989e-07
4.27098e-07
8.86107e-07
4.71801e-07
6.91544e-07
4.30523e-07
5.96991e-07
7.5888e-07
7.59301e-07
7.75968e-07
6.8045e-07
7.59486e-07
7.60172e-07
7.44415e-07
1.83829e-07
5.48106e-08
1.83829e-07
7.39054e-08
1.8383e-07
5.44818e-08
1.8383e-07
6.50555e-07
8.8812e-07
8.84432e-07
3.43799e-07
6.11946e-07
8.60535e-07
8.73308e-07
7.4436e-07
7.56062e-07
6.3373e-07
6.64133e-07
7.35088e-07
6.64113e-07
7.59447e-07
1.83832e-07
5.96081e-08
1.83831e-07
3.6658e-08
1.29567e-07
3.99077e-08
1.29566e-07
9.1304e-07
7.84424e-07
7.35787e-07
7.01115e-07
8.75663e-07
8.05485e-07
7.24092e-07
6.94685e-07
7.58499e-07
5.30771e-07
6.52987e-07
6.77163e-07
7.59209e-07
6.0676e-07
1.83532e-07
3.68472e-07
5.19785e-08
4.85517e-08
1.29419e-07
2.89276e-07
3.51617e-08
6.08541e-07
3.31222e-07
5.40178e-07
5.296e-07
6.35515e-07
6.52337e-07
4.63627e-07
7.54259e-07
7.69473e-07
5.30003e-07
7.23401e-07
7.52231e-07
7.67305e-07
5.89165e-07
5.19794e-08
7.77197e-07
5.26862e-08
6.92281e-07
3.51786e-08
6.99129e-07
3.55875e-08
5.95039e-07
8.57662e-07
3.17967e-07
6.26995e-07
3.23585e-07
6.87432e-07
3.63896e-07
5.96609e-07
7.1881e-07
3.5902e-07
6.97585e-07
5.22023e-07
7.33528e-07
3.15455e-07
5.74515e-08
7.74512e-07
1.14742e-07
7.01333e-07
3.87997e-08
7.01104e-07
7.95198e-08
5.96529e-07
3.90022e-07
3.81506e-07
3.47916e-07
5.49141e-07
5.91594e-07
5.93123e-07
7.59348e-07
7.57181e-07
5.79946e-07
6.5209e-07
7.53855e-07
7.627e-07
5.59819e-07
1.50894e-07
9.32061e-07
2.19784e-07
9.02754e-07
1.05741e-07
9.02972e-07
1.60224e-07
6.58679e-07
4.7845e-07
8.80436e-07
6.12635e-07
3.85004e-07
7.67122e-07
8.43441e-07
7.57439e-07
7.59687e-07
4.59101e-07
7.18061e-07
7.64038e-07
7.65559e-07
4.7932e-07
2.25629e-07
9.31851e-07
1.45971e-07
9.02922e-07
1.64605e-07
9.02589e-07
1.02557e-07
8.87083e-07
8.03463e-07
8.86649e-07
8.95028e-07
8.67718e-07
8.74315e-07
8.70145e-07
7.60479e-07
7.44684e-07
6.45106e-07
6.95819e-07
7.65559e-07
7.50542e-07
7.38986e-07
1.088e-07
7.75292e-07
5.76223e-08
7.00542e-07
7.52168e-08
7.01198e-07
3.89286e-08
3.69884e-07
5.40981e-07
2.64304e-07
6.43521e-07
7.47431e-07
6.70369e-07
5.43181e-07
7.65457e-07
7.55023e-07
3.90002e-07
7.38996e-07
7.60748e-07
7.60371e-07
4.62245e-07
5.29071e-08
7.68647e-07
5.19821e-08
6.9921e-07
3.56911e-08
6.93121e-07
3.50567e-08
3.33854e-07
7.55098e-07
4.93759e-07
8.61969e-07
3.95979e-07
7.54614e-07
6.65272e-07
5.59463e-07
7.33851e-07
2.63636e-07
6.52895e-07
5.2428e-07
7.4982e-07
2.46226e-07
5.19792e-08
9.6043e-08
1.83546e-07
6.86764e-07
3.51415e-08
6.60295e-08
1.29424e-07
5.93685e-07
3.47521e-07
6.57174e-07
5.4672e-07
6.22402e-07
4.56053e-07
6.20906e-07
7.65145e-07
7.70788e-07
6.64914e-07
7.47098e-07
7.67328e-07
7.68073e-07
6.71707e-07
1.83834e-07
5.44184e-08
1.83834e-07
5.00418e-08
1.29567e-07
3.67967e-08
1.29567e-07
7.63137e-07
6.95904e-07
1.16661e-07
1.62746e-07
1.63596e-07
6.93681e-07
7.70251e-07
7.70044e-07
6.85671e-07
6.94263e-07
7.62373e-07
7.28187e-07
7.64909e-07
6.93495e-07
7.6702e-07
1.2191e-07
6.97017e-07
2.5496e-07
1.72389e-07
7.71836e-07
6.94945e-07
7.68049e-07
7.6425e-07
7.52069e-07
3.86657e-07
4.62023e-07
7.56966e-07
7.58309e-07
7.58211e-07
1.62292e-07
7.67147e-07
1.63563e-07
1.62934e-07
7.58999e-07
7.68701e-07
7.66535e-07
7.36061e-07
6.92731e-07
7.63782e-07
6.99557e-07
7.6008e-07
7.67095e-07
7.63587e-07
2.54773e-07
1.72115e-07
7.70006e-07
1.72436e-07
7.71118e-07
7.61209e-07
7.67562e-07
6.98529e-07
6.93635e-07
6.34848e-07
7.72862e-07
7.67331e-07
6.97928e-07
7.66935e-07
6.27417e-07
5.92346e-07
5.13713e-07
6.96676e-07
6.76605e-07
6.97521e-07
7.73358e-07
6.97316e-07
6.9908e-07
7.75756e-07
7.72057e-07
7.72431e-07
7.00167e-07
7.27492e-07
7.60929e-07
7.67092e-07
4.70068e-07
7.59789e-07
6.0529e-07
7.10917e-07
7.58132e-07
6.31048e-07
7.67861e-07
7.62037e-07
7.70481e-07
7.64264e-07
7.51256e-07
7.64464e-07
4.28441e-07
6.65258e-07
7.1138e-07
6.64662e-07
6.95247e-07
7.62014e-07
7.71285e-07
7.75308e-07
7.7105e-07
7.76854e-07
7.7131e-07
7.72225e-07
7.67659e-07
7.65759e-07
6.98772e-07
7.0051e-07
7.76608e-07
7.70545e-07
7.76297e-07
6.98092e-07
7.52775e-07
6.82244e-07
6.94744e-07
7.47428e-07
7.49749e-07