/*--------------------------------*- C++ -*----------------------------------*\
| =========                 |                                                 |
| \\      /  F ield         | OpenFOAM: The Open Source CFD Toolbox           |
|  \\    /   O peration     | Version:  5.0                                   |
|   \\  /    A nd           | Web:      www.OpenFOAM.org                      |
|    \\/     M anipulation  |                                                 |
\*---------------------------------------------------------------------------*/
FoamFile
{
    version     2.0;
    format      ascii;
    class       volVectorField;
    location    "3.5";
    object      U;
}
// * * * * * * * * * * * * * * * * * * * * * * * * * * * * * * * * * * * * * //

dimensions      [0 1 -1 0 0 0 0];

internalField   nonuniform List<vector> 
9046
(
(-0.004237 -0.00446829 -0.000476237)
(0.00252394 0.00683888 0.000336587)
(-0.0048597 0.000322394 0.00269417)
(-0.0103432 0.00264394 -0.000672044)
(-0.00774288 0.00196256 0.00231381)
(-0.016777 -0.00997602 -0.000316888)
(0.000421816 -5.14636e-05 2.86009e-05)
(0.000895092 -0.000144796 -2.18751e-06)
(0.000836133 -6.39453e-05 -1.60663e-07)
(0.000823877 -5.04788e-05 3.56491e-08)
(0.000816775 -3.14186e-05 7.02799e-08)
(0.000811324 -2.04047e-05 7.19148e-08)
(0.00080827 -1.27817e-05 -5.12664e-09)
(0.000805362 -7.88544e-06 8.04071e-08)
(0.000802808 -4.96766e-06 5.11863e-08)
(0.000800748 -3.12764e-06 3.46199e-08)
(0.000798892 -2.07118e-06 5.512e-08)
(0.000797083 -1.30852e-06 8.37862e-08)
(0.000795253 -8.99511e-07 6.8516e-08)
(0.000793543 -6.21923e-07 2.24207e-07)
(0.000792117 -5.20583e-07 5.02992e-08)
(0.000790525 -2.3776e-07 5.71523e-08)
(0.000788712 -3.73275e-07 5.17464e-08)
(0.000787136 -1.83689e-07 4.83935e-08)
(0.00078564 1.61735e-08 6.46663e-08)
(0.000783939 2.12743e-07 6.43474e-08)
(0.000782289 2.2044e-07 5.35605e-08)
(0.000780906 1.252e-07 4.99486e-08)
(0.00077916 2.48651e-07 1.75829e-07)
(0.000777614 -5.18567e-08 5.15624e-08)
(0.000775992 -4.17852e-07 8.12117e-08)
(0.000774152 -4.61022e-07 -4.37177e-08)
(0.000772554 -3.12057e-07 8.23617e-08)
(0.000771427 7.60948e-08 7.55063e-08)
(0.000770244 1.16483e-07 4.6709e-08)
(0.000768418 7.2184e-08 5.97733e-08)
(0.000766537 1.68744e-07 3.28607e-08)
(0.000764736 2.79813e-07 3.39084e-08)
(0.000763835 5.51883e-07 9.16684e-08)
(0.00076276 1.53339e-07 1.49317e-07)
(0.000761004 2.74711e-08 2.69129e-08)
(0.000759422 3.86562e-08 7.43453e-08)
(0.000758299 -3.36197e-07 8.07422e-08)
(0.000756528 -4.13279e-07 5.84019e-09)
(0.000754716 -2.66504e-07 3.7999e-08)
(0.000753383 -1.70004e-07 2.34675e-08)
(0.000752209 9.67251e-09 4.60087e-08)
(0.000751182 -1.22448e-07 6.12781e-08)
(0.000749434 -3.91989e-07 4.46024e-08)
(0.000747846 -3.44935e-07 1.08271e-08)
(0.00940833 0.00358321 -0.00030429)
(-0.0191973 -0.0100291 0.00118919)
(0.00295874 -0.0162184 0.000777219)
(0.00458848 0.00501507 0.000339751)
(0.00313998 0.00880531 -0.00152268)
(-0.00350628 0.00089458 0.000239556)
(0.000381441 -0.000120812 4.18395e-05)
(0.000490596 -6.62921e-05 -1.12004e-06)
(0.000918127 -4.57975e-05 -1.14415e-06)
(0.000832961 -3.82356e-05 -4.66322e-07)
(0.000833806 -2.31444e-05 1.80538e-07)
(0.000821622 -1.50162e-05 3.73222e-08)
(0.000815029 -9.51505e-06 6.90713e-08)
(0.000809633 -6.11189e-06 4.83293e-08)
(0.000805797 -3.81231e-06 4.95278e-08)
(0.000802531 -2.47251e-06 3.34258e-08)
(0.000799882 -1.25649e-06 5.50896e-08)
(0.000797871 -5.75581e-07 7.83765e-08)
(0.000795994 -7.38256e-08 1.08897e-07)
(0.000794035 -1.00396e-07 2.67475e-08)
(0.000792123 5.46974e-08 1.34937e-08)
(0.000790217 -2.92532e-09 6.50555e-08)
(0.000788714 2.66476e-07 3.35051e-07)
(0.000787548 2.76188e-07 4.00465e-08)
(0.000785861 7.79764e-08 -2.49578e-08)
(0.000783938 -8.3e-08 1.40249e-07)
(0.000782303 -1.43386e-08 3.16038e-08)
(0.000780875 -1.69598e-07 4.84632e-08)
(0.000779116 -4.86138e-07 7.105e-08)
(0.000777074 -4.36447e-07 4.79974e-08)
(0.000775619 -3.40986e-07 -1.34282e-07)
(0.000774364 -1.62167e-07 1.66116e-08)
(0.000773217 3.63428e-07 1.21726e-07)
(0.000771874 4.98163e-07 8.857e-08)
(0.000769944 1.00312e-07 4.65165e-08)
(0.000768308 3.1146e-08 3.81778e-08)
(0.000766948 8.65322e-08 3.85054e-08)
(0.000765676 3.03565e-07 8.4429e-09)
(0.000763686 5.84467e-07 4.48209e-08)
(0.000761873 2.51788e-07 4.31481e-07)
(0.00076073 -5.79862e-08 8.00445e-08)
(0.000759028 -3.59985e-07 5.10848e-08)
(0.000757391 -3.666e-07 -3.18291e-08)
(0.000756581 -6.07434e-07 8.11068e-08)
(0.000755377 -1.04567e-07 5.60612e-08)
(0.000753802 -2.14699e-08 5.55752e-08)
(0.000752336 3.56021e-07 5.41434e-08)
(0.000750747 6.71965e-08 -4.81943e-08)
(0.000749363 -9.28898e-08 -7.42427e-08)
(0.000748361 -1.75379e-07 1.07872e-07)
(0.00569042 -0.0120987 -0.000235153)
(0.0248915 0.0139004 -0.00460167)
(-0.0509902 -0.0227589 0.00266842)
(0.0406085 -0.0111896 -0.000776509)
(-0.0333802 -0.041122 0.00251437)
(-0.000604271 -0.00470862 -0.00053688)
(0.00216789 0.000521543 0.00014371)
(0.000548458 -5.11797e-05 -1.08721e-06)
(0.000961369 -2.57817e-05 -2.08502e-06)
(0.000852315 -1.31816e-05 -5.73734e-07)
(0.000845948 -7.59162e-06 1.60373e-07)
(0.000828451 -4.35138e-06 2.88911e-08)
(0.000819459 -2.70765e-06 4.32939e-08)
(0.000812527 -1.63808e-06 4.91754e-08)
(0.000807381 -1.00972e-06 5.44692e-08)
(0.000803957 -6.52017e-07 6.00021e-08)
(0.000801272 -3.57307e-07 5.00318e-08)
(0.000798565 -1.78339e-07 -5.83983e-09)
(0.000795848 -2.07097e-07 1.00631e-07)
(0.000793704 -6.85408e-08 4.66083e-08)
(0.000792238 5.9127e-08 4.66436e-08)
(0.000790787 1.52802e-07 5.22079e-08)
(0.000789058 4.16345e-07 8.56829e-08)
(0.000786898 2.8374e-07 -1.0538e-07)
(0.000785189 1.06957e-07 4.89016e-08)
(0.000783822 6.29995e-08 5.44133e-08)
(0.000782181 2.42566e-08 6.21916e-08)
(0.000780319 -2.80012e-08 5.68236e-08)
(0.00077883 -1.35561e-07 1.09878e-09)
(0.000777801 1.7561e-07 2.34126e-08)
(0.000776339 4.2678e-07 2.42424e-07)
(0.000775032 4.83453e-07 5.52516e-08)
(0.000773378 4.22867e-07 1.51436e-09)
(0.000771095 1.42354e-07 9.16812e-09)
(0.000769657 -7.71588e-09 9.13176e-08)
(0.000768399 5.62442e-08 5.15673e-08)
(0.000766876 1.19814e-08 5.41797e-08)
(0.000765355 -6.90155e-08 5.14878e-08)
(0.000763766 -2.01768e-07 2.59343e-08)
(0.000761954 3.29951e-08 3.34848e-08)
(0.000760239 -5.13343e-09 5.68018e-08)
(0.000759038 -9.12097e-08 -2.1794e-08)
(0.000757993 2.09448e-07 8.1278e-08)
(0.000756859 4.19866e-07 1.06137e-07)
(0.000755452 2.58577e-07 5.51914e-08)
(0.000753959 2.67705e-07 1.20349e-07)
(0.000752321 2.92444e-07 1.52164e-07)
(0.000750621 4.10038e-07 8.01851e-08)
(0.000749136 2.46122e-07 5.63313e-08)
(0.000748178 1.41708e-07 1.13205e-07)
(-0.0069691 0.00730606 0.00135843)
(-0.00130196 0.00387127 -0.000910458)
(-0.00641542 -0.0334465 -0.000821959)
(0.00749109 0.00111888 0.000786699)
(-0.00810122 0.0185062 -0.00062203)
(0.00329129 -0.00609747 -0.000963727)
(0.000574645 0.000773158 -4.79652e-06)
(0.000352263 -1.43837e-05 2.79871e-06)
(0.000941952 3.10462e-05 -2.05692e-06)
(0.000855762 2.09619e-05 -3.86923e-07)
(0.000844888 1.37493e-05 1.27859e-07)
(0.000827752 9.06404e-06 2.1957e-08)
(0.000818435 5.67696e-06 5.20914e-08)
(0.000811764 3.61488e-06 5e-08)
(0.000807035 2.38994e-06 4.78441e-08)
(0.00080335 1.61325e-06 4.97338e-08)
(0.000800476 7.69538e-07 5.18168e-08)
(0.00079806 2.69028e-07 5.43646e-08)
(0.000796132 -2.21326e-08 2.42098e-08)
(0.000794368 1.05273e-07 2.73525e-08)
(0.000792399 7.72775e-08 6.90942e-08)
(0.000790662 -2.363e-08 4.88401e-08)
(0.000788875 -1.9008e-07 4.17648e-08)
(0.000787159 -1.45167e-07 6.20304e-08)
(0.000785584 7.72513e-08 1.54773e-07)
(0.000783835 2.5029e-07 3.6834e-08)
(0.000782188 2.84632e-07 5.96396e-08)
(0.000780676 4.64295e-07 6.12629e-08)
(0.00077937 7.57658e-07 3.97274e-08)
(0.000777774 5.36128e-07 4.04664e-08)
(0.000775999 4.01963e-07 2.47946e-08)
(0.000774354 5.25534e-07 2.26774e-08)
(0.000772787 1.8484e-08 6.76384e-08)
(0.000771334 -2.53495e-08 4.99334e-08)
(0.000769835 1.47528e-07 7.36499e-08)
(0.000768332 6.5415e-08 3.26385e-08)
(0.000766792 1.44082e-08 3.58607e-08)
(0.000765409 -7.2909e-08 3.86618e-08)
(0.000763814 -2.46533e-07 2.21647e-08)
(0.000762119 -3.15197e-07 -6.05834e-08)
(0.000760574 1.20434e-08 4.04278e-08)
(0.000759295 2.11246e-07 1.91685e-07)
(0.000758027 5.60243e-07 1.62656e-07)
(0.000756638 3.67227e-07 3.8619e-09)
(0.000755183 4.76004e-08 2.84268e-08)
(0.000753841 5.1665e-08 4.13959e-08)
(0.000752511 3.61593e-08 7.57302e-08)
(0.000750687 2.88264e-07 4.05183e-08)
(0.000749024 1.58299e-07 4.47603e-08)
(0.000747876 2.5609e-07 1.59086e-07)
(-0.000125626 -0.00405496 0.000355965)
(-0.0117817 0.000102332 0.00435074)
(0.00532925 0.0102822 -0.00324459)
(0.00747572 -0.00584478 0.000680206)
(0.00800743 -0.0061042 0.00104761)
(0.000439822 0.000514066 0.000168002)
(0.000402892 0.000387981 1.17781e-05)
(0.000514756 -6.28239e-06 3.4346e-05)
(0.000928879 7.98783e-05 -1.09986e-06)
(0.000830475 4.84653e-05 -6.15983e-07)
(0.000830973 3.07346e-05 1.8303e-07)
(0.000818295 1.89396e-05 3.43182e-07)
(0.000812605 1.20268e-05 1.53696e-07)
(0.000808392 7.41255e-06 5.24155e-08)
(0.000804862 4.48926e-06 -4.17038e-09)
(0.00080192 2.7585e-06 2.67685e-08)
(0.000799585 1.80062e-06 5.00016e-08)
(0.000797573 1.0598e-06 5.53507e-08)
(0.000795643 7.41245e-07 2.05379e-07)
(0.000793828 4.04089e-07 9.77872e-08)
(0.000792078 1.33809e-07 6.56368e-08)
(0.000790455 1.92462e-07 4.23123e-08)
(0.000788908 3.49369e-08 2.20373e-08)
(0.000787233 8.92214e-08 1.00672e-07)
(0.000785684 2.41961e-08 6.77983e-08)
(0.00078408 -2.36822e-07 8.16893e-08)
(0.000782445 1.39877e-07 6.83107e-08)
(0.000780905 3.05229e-07 3.15791e-08)
(0.000778913 5.1487e-07 2.35632e-07)
(0.000777349 6.09816e-07 4.06692e-08)
(0.000776319 2.53437e-07 5.636e-08)
(0.000774548 -9.50663e-08 3.48426e-08)
(0.000772686 1.27975e-07 8.03348e-08)
(0.000771255 6.67472e-08 5.02584e-08)
(0.00076977 1.00199e-07 4.34416e-08)
(0.000768232 -4.98294e-08 4.84946e-08)
(0.000766703 -7.45891e-08 2.90207e-08)
(0.000765031 -1.28296e-07 7.88819e-08)
(0.000763466 -1.95585e-07 3.86269e-08)
(0.000762279 -2.29065e-07 8.80188e-08)
(0.000760897 4.82347e-08 5.19495e-08)
(0.000759721 4.65779e-07 1.27698e-07)
(0.000758185 2.72697e-07 3.57028e-08)
(0.000756215 2.72043e-07 -8.2253e-08)
(0.000755055 2.12741e-08 5.23561e-08)
(0.000753944 -1.5856e-07 4.85498e-08)
(0.000752615 -5.01815e-07 1.01285e-08)
(0.000750772 -8.24053e-07 -1.42297e-08)
(0.00074909 -3.28651e-07 5.96858e-08)
(0.000747664 1.38871e-08 5.19149e-08)
(0.0201198 -0.00286448 -0.00111681)
(0.0301901 0.042881 -0.0045946)
(0.00516836 -0.0210907 0.000159809)
(0.0216727 -0.0180286 0.00115596)
(-0.00658489 -0.00895743 0.000995826)
(0.00130991 -0.00024733 -0.000706496)
(0.00115931 2.87977e-05 -7.00759e-06)
(0.000498763 6.51039e-05 3.96921e-05)
(0.000865807 9.34562e-05 -1.02779e-06)
(0.000793833 5.98483e-05 -5.48667e-07)
(0.000807776 3.61959e-05 1.98017e-07)
(0.000804239 2.22418e-05 1.13352e-07)
(0.000803947 1.38468e-05 4.14307e-08)
(0.000802293 8.48149e-06 5.05763e-08)
(0.000801188 5.16052e-06 8.20735e-08)
(0.000799972 3.12336e-06 6.11123e-08)
(0.000798343 1.93573e-06 5.33208e-08)
(0.000796728 1.24104e-06 7.32739e-08)
(0.000795308 6.43223e-07 2.91361e-08)
(0.000793606 5.3455e-07 4.23938e-08)
(0.000792133 4.72087e-07 2.26391e-08)
(0.000790537 3.52655e-07 6.599e-08)
(0.000788746 2.86873e-07 6.56514e-08)
(0.000787145 1.61245e-07 6.81623e-08)
(0.000785177 1.58082e-07 -2.83847e-08)
(0.000783979 2.01642e-07 -4.53518e-08)
(0.000782865 1.21439e-08 4.19273e-08)
(0.000781142 -8.70316e-08 1.02263e-08)
(0.000779747 1.29534e-07 2.41638e-08)
(0.000777444 -9.79746e-08 -1.13707e-07)
(0.000775116 -1.88121e-07 4.40035e-09)
(0.000774196 -2.63234e-07 -6.67236e-09)
(0.000772989 -2.23974e-07 1.61674e-08)
(0.000771297 -1.36375e-07 5.42452e-08)
(0.000769689 -1.82671e-07 2.51261e-08)
(0.000768114 -5.23674e-08 4.7089e-08)
(0.000766695 -5.07856e-08 1.0098e-08)
(0.00076526 4.48274e-08 5.11784e-08)
(0.00076369 1.66633e-07 6.78985e-08)
(0.000762425 2.88052e-07 6.71783e-08)
(0.000761443 2.40962e-07 5.74515e-08)
(0.000759574 3.19711e-07 -1.88095e-08)
(0.000757784 1.09238e-09 4.51463e-08)
(0.000756324 4.81223e-08 5.83533e-08)
(0.000754646 4.79554e-08 3.22526e-08)
(0.00075319 -1.50287e-07 4.491e-08)
(0.000751683 -4.95654e-07 -7.41798e-08)
(0.000750908 -6.90769e-07 7.01139e-08)
(0.000750073 -4.61316e-07 8.85357e-08)
(0.00074827 -3.19089e-07 1.19781e-07)
(0.0189206 -0.00438591 0.00020282)
(0.0208295 0.0139822 0.000379616)
(-0.00745728 0.0110668 -0.0026519)
(-0.0408589 0.00650279 -0.00222304)
(0.00612321 -0.0109291 -8.80003e-05)
(0.000115619 0.0107294 0.000199004)
(-4.36458e-05 0.000483939 4.55382e-05)
(0.000396611 5.46734e-05 2.30086e-05)
(0.000778695 7.58034e-05 -1.69446e-06)
(0.00075864 4.57317e-05 -3.10541e-07)
(0.00078374 2.71583e-05 1.56167e-07)
(0.00079022 1.66217e-05 4.68342e-08)
(0.000795319 9.98699e-06 6.21103e-08)
(0.000797481 6.16959e-06 5.58789e-08)
(0.000798132 3.77983e-06 3.83626e-08)
(0.00079787 2.45712e-06 5.58026e-08)
(0.000797221 1.62751e-06 5.23849e-08)
(0.00079595 1.09718e-06 4.58259e-08)
(0.000794754 7.77206e-07 1.2084e-07)
(0.00079361 4.03832e-07 6.56021e-08)
(0.000791846 3.71053e-07 3.24506e-08)
(0.00079022 1.37392e-07 4.74414e-08)
(0.000788666 1.69304e-07 2.01749e-08)
(0.00078707 6.70081e-08 5.60236e-08)
(0.000785732 1.17861e-07 1.31912e-07)
(0.000783897 3.46702e-07 1.08296e-07)
(0.000782084 -4.87537e-08 7.71411e-08)
(0.000781052 -2.9675e-07 4.75803e-08)
(0.000778901 -9.83936e-07 -7.66979e-08)
(0.000776954 -1.11149e-06 1.02497e-07)
(0.000776115 -5.68786e-07 -5.27443e-08)
(0.000774507 -8.43879e-08 6.34278e-08)
(0.000772847 1.26672e-08 4.1729e-08)
(0.000771309 -8.16238e-08 7.15507e-08)
(0.000769877 -1.20672e-07 6.26623e-08)
(0.000768398 7.17484e-09 5.44191e-08)
(0.000766825 1.14722e-08 5.01116e-08)
(0.000765302 4.56305e-08 4.52313e-08)
(0.000763769 9.24188e-08 4.44895e-08)
(0.00076237 3.08487e-07 2.83936e-08)
(0.000760935 5.08442e-08 3.62357e-08)
(0.00075942 -2.90845e-07 8.41882e-09)
(0.000757845 -1.12716e-07 3.9892e-08)
(0.000756274 -2.96072e-07 -8.18379e-08)
(0.000754808 -1.37543e-07 3.94132e-08)
(0.000753267 -1.91498e-08 4.84643e-08)
(0.000751944 -1.19365e-08 6.02793e-08)
(0.000750821 1.31601e-07 4.60174e-08)
(0.000749564 -2.25601e-07 3.97104e-08)
(0.000748637 -2.99044e-07 6.34575e-08)
(0.0058233 -0.0162642 0.000552838)
(-0.00663517 -0.0200284 0.000626814)
(0.00589001 0.000134955 -0.00010076)
(-0.00677667 -0.00254571 0.00105431)
(0.00315734 0.0031683 0.00388053)
(0.0117857 -0.011986 0.0012156)
(0.000914244 -0.000405108 1.95787e-05)
(0.000320105 4.63854e-05 2.02193e-06)
(0.000749907 1.58335e-05 -1.11599e-06)
(0.000732752 9.30542e-06 -4.66719e-07)
(0.000771231 5.78531e-06 1.68521e-07)
(0.000782678 3.65881e-06 3.54154e-08)
(0.000790822 2.29044e-06 6.07463e-08)
(0.000794498 1.43515e-06 5.51594e-08)
(0.000796524 9.42026e-07 1.2693e-07)
(0.000797266 5.62129e-07 5.41494e-08)
(0.000796632 2.3154e-07 1.06528e-07)
(0.000795658 1.33912e-07 6.03372e-08)
(0.000794436 1.99036e-07 6.94158e-08)
(0.000793095 3.81633e-08 3.07338e-08)
(0.000791798 -7.12463e-08 5.11429e-08)
(0.000790284 -1.82147e-08 5.48115e-08)
(0.000788657 -2.1022e-07 4.37179e-08)
(0.00078708 -1.18342e-07 4.95801e-08)
(0.000785525 -2.84237e-07 5.76887e-08)
(0.00078377 -3.83092e-07 -1.34518e-07)
(0.000782061 -5.58073e-08 -2.41901e-07)
(0.000779977 -2.06297e-07 4.62743e-08)
(0.000778735 -4.80293e-07 1.40773e-07)
(0.000777969 1.234e-07 7.34631e-08)
(0.000776405 1.9361e-07 8.78376e-08)
(0.000774925 1.82822e-09 7.18509e-08)
(0.000772993 -1.01977e-07 4.08448e-08)
(0.000771132 6.94217e-08 4.43199e-08)
(0.000769801 5.7541e-09 8.83142e-08)
(0.00076828 -2.73835e-07 4.02238e-08)
(0.000766743 -1.08147e-07 5.53851e-08)
(0.000765361 -1.16936e-07 5.02519e-08)
(0.000764017 1.51723e-08 4.21405e-08)
(0.000762373 4.1487e-09 7.8763e-08)
(0.000760693 -4.94381e-08 1.35963e-08)
(0.000759371 -4.75338e-08 4.65803e-08)
(0.000757779 -1.89267e-07 -9.05374e-08)
(0.000756295 -8.6559e-08 4.56073e-08)
(0.000754994 -7.72743e-08 6.00026e-08)
(0.000753348 5.30684e-08 4.60297e-08)
(0.000751873 4.35487e-07 4.01399e-08)
(0.000750642 3.0219e-07 5.25229e-08)
(0.000749543 1.61968e-07 8.53114e-08)
(0.000748925 -6.22873e-08 6.19758e-08)
(0.0127184 0.00578002 0.00166823)
(-0.00548749 -0.0049673 -0.000739709)
(0.00593673 0.00380101 -1.32704e-05)
(0.00100733 -0.00771628 -0.000259109)
(-0.00232565 -0.00372031 0.000353307)
(0.00857017 -0.0103504 -5.36258e-05)
(0.00210187 -0.00134347 0.000101288)
(0.000357302 -5.10315e-05 7.66376e-07)
(0.000767235 -6.59347e-05 -1.21622e-06)
(0.000745892 -3.05361e-05 -3.91852e-07)
(0.000776651 -1.88827e-05 1.65245e-07)
(0.000785833 -1.08053e-05 4.15157e-08)
(0.000792529 -6.52446e-06 6.08845e-08)
(0.000795789 -4.05861e-06 5.64268e-08)
(0.000797037 -2.29171e-06 4.48111e-08)
(0.00079698 -1.43595e-06 1.17283e-07)
(0.000796684 -9.99639e-07 9.22136e-08)
(0.000795909 -6.70129e-07 5.29835e-08)
(0.000794634 -4.11843e-07 6.0634e-08)
(0.000793273 -1.17457e-07 7.3542e-08)
(0.000791777 -4.34064e-08 4.79205e-08)
(0.000790048 -2.44896e-07 6.91179e-08)
(0.000788543 -2.47311e-07 4.03081e-08)
(0.000786981 -2.5628e-07 5.52499e-08)
(0.000785405 -2.65187e-07 3.47104e-08)
(0.000784185 -3.85623e-07 2.48551e-08)
(0.000782307 -3.35819e-07 6.94458e-08)
(0.000780524 -1.05678e-07 5.04456e-08)
(0.000779314 3.55976e-07 1.13423e-07)
(0.000777796 3.77924e-07 3.3009e-08)
(0.000775962 3.06422e-07 3.75425e-08)
(0.000774136 1.57023e-07 4.70572e-08)
(0.000772931 -2.51452e-07 -1.2584e-07)
(0.000771443 -2.03572e-07 6.61033e-08)
(0.000769448 -8.82932e-08 4.08305e-08)
(0.000768257 -8.57736e-08 9.52868e-08)
(0.000767023 -1.17609e-07 5.77418e-08)
(0.000765457 -1.28132e-07 4.58421e-08)
(0.000763921 -2.46949e-07 7.25248e-08)
(0.00076229 -2.65756e-07 4.00069e-08)
(0.000760871 -1.21417e-07 6.1765e-08)
(0.000759246 -1.22381e-07 -2.76592e-08)
(0.000757797 -3.32315e-08 4.30224e-08)
(0.000756415 1.74429e-08 3.97723e-08)
(0.000754984 1.24196e-07 4.29446e-08)
(0.000753907 8.00091e-08 4.92793e-08)
(0.000752253 2.11635e-07 2.9081e-08)
(0.000750476 4.04862e-07 4.03275e-08)
(0.000749108 7.00119e-07 -7.52397e-08)
(0.00074851 4.88385e-07 8.89266e-08)
(-0.00798465 -0.0233609 0.000590608)
(0.00978352 -0.00695368 0.000852071)
(0.0031042 -0.000560233 -0.000251948)
(-0.0175239 -0.00334707 0.000143274)
(0.00388329 -0.00441619 0.000294518)
(0.00503742 -0.00881636 -0.000230249)
(0.000393105 -6.91999e-06 3.5439e-05)
(0.00082757 -0.000114995 -1.71753e-06)
(0.000788293 -9.47554e-05 -1.73491e-07)
(0.000791948 -5.18797e-05 1.93672e-08)
(0.000796012 -3.25861e-05 9.65841e-08)
(0.0007982 -1.99485e-05 6.27088e-08)
(0.0007993 -1.22991e-05 6.4395e-08)
(0.000799815 -7.41962e-06 5.94845e-08)
(0.000799819 -4.68018e-06 5.37545e-08)
(0.000798891 -2.82622e-06 6.3504e-08)
(0.000797596 -1.68031e-06 5.08063e-08)
(0.000796398 -1.0684e-06 9.10915e-08)
(0.00079513 -7.46301e-07 7.35843e-08)
(0.000793557 -5.7759e-07 6.57097e-08)
(0.00079164 -5.32816e-07 8.94023e-08)
(0.000790031 -3.07885e-07 7.1504e-08)
(0.000788645 -1.53049e-07 5.55611e-08)
(0.000787061 -1.73924e-07 4.81634e-08)
(0.000785367 -2.90726e-08 6.33927e-08)
(0.000783686 1.41595e-08 7.40105e-08)
(0.000782414 -2.2663e-07 1.22728e-07)
(0.000780842 -1.36851e-09 4.47008e-08)
(0.000779338 7.92386e-08 -1.45181e-09)
(0.000777905 -1.25107e-07 3.83831e-08)
(0.000776127 -6.6466e-08 1.04613e-07)
(0.000774227 -1.01962e-07 -1.54637e-08)
(0.000772543 -5.59617e-08 -3.70398e-08)
(0.000771338 -4.05861e-07 3.74507e-08)
(0.000769949 -7.09235e-08 7.09074e-08)
(0.000768244 2.29642e-07 -9.60815e-09)
(0.000766691 5.79921e-08 1.61664e-08)
(0.0007652 -1.58547e-07 5.15933e-08)
(0.000763848 -5.19739e-07 5.0694e-08)
(0.000762532 -2.28792e-07 5.76331e-08)
(0.000760875 -1.45581e-07 5.64843e-08)
(0.000759483 -1.23438e-07 2.83264e-08)
(0.000757955 -5.46841e-09 8.01469e-08)
(0.000756491 2.78644e-07 3.21926e-08)
(0.000755071 8.62858e-08 5.76239e-08)
(0.000753455 6.70235e-08 4.31651e-08)
(0.000752275 -3.32013e-07 2.75749e-08)
(0.000751247 3.31183e-08 3.14656e-08)
(0.000749633 2.33939e-07 1.60111e-09)
(0.000747442 3.00665e-07 6.20842e-08)
(0.00540376 0.00108911 -0.000571752)
(0.001837 -0.008022 -5.08271e-05)
(0.032612 0.00138647 -0.0109071)
(-0.00347549 -0.00527468 -0.00584622)
(-0.0325141 0.00366853 -0.0199827)
(-0.0337753 0.023951 -0.00491829)
(0.000973324 -0.00024112 5.07947e-05)
(0.00148143 -0.00022103 3.91537e-07)
(0.00138849 -9.32559e-05 3.39719e-07)
(0.00137039 -7.52614e-05 3.53352e-07)
(0.00135989 -4.66779e-05 1.23989e-07)
(0.00135154 -3.0415e-05 3.72469e-07)
(0.00134696 -1.90591e-05 2.77045e-07)
(0.00134237 -1.16997e-05 3.74407e-07)
(0.00133822 -7.36886e-06 3.42758e-07)
(0.00133492 -4.6334e-06 2.85002e-07)
(0.00133193 -3.08774e-06 3.38705e-07)
(0.00132898 -1.93811e-06 3.66826e-07)
(0.00132594 -1.34936e-06 3.9095e-07)
(0.00132316 -9.77043e-07 5.98538e-07)
(0.00132085 -7.77648e-07 4.08255e-07)
(0.00131818 -2.87679e-07 3.73688e-07)
(0.00131519 -4.73961e-07 3.24949e-07)
(0.00131262 -2.23397e-07 2.87072e-07)
(0.00131015 1.29989e-07 3.46789e-07)
(0.00130735 4.67193e-07 3.54167e-07)
(0.00130468 4.21735e-07 3.12666e-07)
(0.00130249 2.06905e-07 3.29083e-07)
(0.00129947 3.84521e-07 4.95377e-07)
(0.00129675 -1.63359e-07 3.64004e-07)
(0.00129415 -8.26675e-07 3.57217e-07)
(0.0012911 -8.15426e-07 1.35355e-07)
(0.00128853 -5.34773e-07 3.38439e-07)
(0.00128675 1.01654e-07 3.85451e-07)
(0.00128475 2.31916e-07 3.16168e-07)
(0.00128172 2.04112e-07 3.32764e-07)
(0.00127854 3.24391e-07 3.14885e-07)
(0.00127553 4.89787e-07 3.04148e-07)
(0.00127398 9.5476e-07 3.03328e-07)
(0.0012722 3.89174e-07 4.23613e-07)
(0.00126935 9.83356e-08 2.83664e-07)
(0.00126672 1.05002e-07 3.51486e-07)
(0.00126489 -5.36965e-07 4.1592e-07)
(0.00126193 -6.25753e-07 2.11712e-07)
(0.00125897 -4.46735e-07 3.212e-07)
(0.00125673 -3.39763e-07 9.05733e-08)
(0.00125469 -4.1086e-08 2.59524e-07)
(0.00125297 -2.76228e-07 3.21522e-07)
(0.00125004 -6.41059e-07 3.44131e-07)
(0.00124732 -5.51795e-07 2.26742e-07)
(0.0193124 0.00317387 -0.00209386)
(0.0178889 0.0509076 0.0017299)
(0.00901753 -0.0102288 6.94822e-06)
(0.00247146 -0.00320333 0.00196604)
(0.00420002 -0.0181719 -0.00244899)
(-0.0121843 0.00268819 0.00088419)
(0.00122807 0.000160069 3.68114e-05)
(0.00144009 -0.000175873 1.58928e-07)
(0.00152045 -6.78167e-05 4.44861e-07)
(0.00138185 -5.77624e-05 3.4738e-07)
(0.00138548 -3.46694e-05 3.46605e-07)
(0.00136685 -2.24692e-05 3.43427e-07)
(0.00135694 -1.42102e-05 3.49173e-07)
(0.00134865 -9.16708e-06 3.38487e-07)
(0.00134272 -5.70709e-06 3.36639e-07)
(0.00133757 -3.70239e-06 3.07326e-07)
(0.00133337 -1.85023e-06 3.36023e-07)
(0.00133015 -8.53939e-07 4.00661e-07)
(0.0013271 -6.55778e-08 3.78052e-07)
(0.00132391 -1.05624e-07 3.02443e-07)
(0.00132084 1.33878e-07 -1.40459e-07)
(0.00131776 2.48364e-08 3.70052e-07)
(0.0013152 4.87101e-07 1.03499e-06)
(0.00131327 5.06837e-07 2.90661e-07)
(0.00131056 2.07716e-07 7.88721e-08)
(0.00130734 -6.66828e-08 4.85643e-07)
(0.00130457 1.50349e-08 2.94812e-07)
(0.00130221 -3.0443e-07 3.2592e-07)
(0.00129934 -9.6492e-07 2.9216e-07)
(0.00129595 -8.07962e-07 3.18578e-07)
(0.00129361 -6.06279e-07 5.2808e-08)
(0.00129161 -3.07251e-07 2.72267e-07)
(0.00128963 6.6497e-07 4.71462e-07)
(0.0012874 8.86828e-07 4.57081e-07)
(0.00128428 2.11131e-07 3.149e-07)
(0.00128151 5.30293e-08 2.71484e-07)
(0.00127919 1.42884e-07 3.01958e-07)
(0.00127707 5.16598e-07 8.21911e-08)
(0.00127386 9.93721e-07 3.7219e-07)
(0.00127081 5.11266e-07 7.46668e-07)
(0.00126877 -3.96903e-08 3.45485e-07)
(0.00126601 -5.33395e-07 3.45711e-07)
(0.00126338 -5.81794e-07 2.19898e-07)
(0.001262 -1.00026e-06 3.63854e-07)
(0.00125993 -2.06231e-07 3.51571e-07)
(0.00125737 -1.1249e-07 3.37413e-07)
(0.00125495 5.46385e-07 3.11458e-07)
(0.0012523 7.61626e-08 1.9655e-07)
(0.00124997 -2.19895e-07 6.42551e-08)
(0.00124827 -3.13432e-07 3.98243e-07)
(0.0131262 -0.00449338 -0.00543904)
(0.0449127 0.0182271 0.0289014)
(-0.00533831 -0.00348653 -0.000514297)
(0.0629424 -0.051303 -0.0367944)
(0.0161765 -0.0353796 0.0122801)
(0.0176433 0.000604066 0.00219575)
(0.00188965 0.00271351 0.000136458)
(0.00160068 -0.000145275 8.74611e-07)
(0.00158864 -4.03341e-05 -3.16477e-07)
(0.00141193 -2.03023e-05 3.51748e-07)
(0.00140421 -1.15994e-05 3.52077e-07)
(0.00137724 -6.59128e-06 3.38102e-07)
(0.00136367 -4.09422e-06 3.42426e-07)
(0.00135305 -2.47048e-06 3.40201e-07)
(0.00134509 -1.51946e-06 3.37476e-07)
(0.00133976 -9.9357e-07 3.36094e-07)
(0.0013355 -5.35141e-07 3.37184e-07)
(0.00133122 -2.72017e-07 2.08698e-07)
(0.00132687 -3.62325e-07 3.70835e-07)
(0.0013234 -1.21043e-07 3.22515e-07)
(0.00132101 8.75665e-08 2.90264e-07)
(0.00131862 2.30524e-07 3.29172e-07)
(0.00131579 6.47504e-07 3.37043e-07)
(0.00131226 4.92974e-07 -2.09516e-07)
(0.00130943 1.52253e-07 3.37785e-07)
(0.0013071 9.91657e-08 3.27997e-07)
(0.00130438 4.36027e-08 3.61133e-07)
(0.00130127 -1.31498e-08 3.1721e-07)
(0.00129885 -1.824e-07 2.20663e-07)
(0.00129721 3.64887e-07 2.69294e-07)
(0.00129478 8.29059e-07 5.22475e-07)
(0.00129268 8.71288e-07 4.57856e-07)
(0.00129002 7.07989e-07 2.22071e-07)
(0.00128618 2.92034e-07 1.85214e-07)
(0.0012837 1.51946e-09 3.5519e-07)
(0.00128163 6.66054e-08 3.31883e-07)
(0.00127912 3.42158e-08 2.77191e-07)
(0.00127659 -7.78896e-08 3.48879e-07)
(0.00127396 -2.94777e-07 3.04415e-07)
(0.0012709 -4.08705e-09 3.5336e-07)
(0.00126804 -3.67665e-10 3.18632e-07)
(0.00126605 -6.47303e-08 2.38065e-07)
(0.00126431 4.4838e-07 3.20209e-07)
(0.00126241 7.45693e-07 4.24537e-07)
(0.00126009 5.44567e-07 8.88636e-08)
(0.00125767 5.25367e-07 4.10336e-07)
(0.00125492 5.28209e-07 4.70282e-07)
(0.00125202 6.67037e-07 3.30073e-07)
(0.00124956 3.84697e-07 3.24449e-07)
(0.00124798 2.22953e-07 4.51132e-07)
(0.00395665 0.0109054 0.00377452)
(0.0111542 -0.000883176 0.00271509)
(0.016579 -0.00150216 -0.00339249)
(0.00090065 -0.0208947 0.00152232)
(-0.0161282 -0.0169415 0.00355426)
(0.00868459 0.00253818 -0.00373144)
(0.00124053 0.00332627 7.74722e-05)
(0.0016957 -8.4723e-05 1.35906e-05)
(0.0015578 4.75303e-05 3.08397e-07)
(0.00141782 3.17957e-05 5.3796e-07)
(0.00140267 2.07446e-05 3.53665e-07)
(0.00137626 1.36871e-05 3.58138e-07)
(0.0013621 8.50632e-06 3.42894e-07)
(0.00135188 5.41967e-06 3.39738e-07)
(0.00134457 3.60872e-06 3.36897e-07)
(0.00133881 2.45392e-06 3.34517e-07)
(0.00133427 1.13805e-06 3.33722e-07)
(0.00133037 4.02712e-07 3.3173e-07)
(0.00132729 -7.74114e-08 2.68983e-07)
(0.00132448 1.03569e-07 2.98585e-07)
(0.00132128 6.66903e-08 3.25364e-07)
(0.00131845 -8.21236e-08 3.32281e-07)
(0.00131553 -3.59161e-07 3.29615e-07)
(0.00131265 -2.53346e-07 3.95407e-07)
(0.00131006 8.15809e-08 4.24448e-07)
(0.0013072 3.65854e-07 3.28576e-07)
(0.00130443 4.72802e-07 3.87507e-07)
(0.00130192 8.1342e-07 3.87026e-07)
(0.00129981 1.40545e-06 3.05547e-07)
(0.00129721 1.03323e-06 3.05876e-07)
(0.00129423 8.20705e-07 3.15507e-07)
(0.00129145 1.01841e-06 3.0309e-07)
(0.0012889 1.3259e-07 3.44071e-07)
(0.00128652 -3.01479e-08 3.23701e-07)
(0.001284 2.42345e-07 3.34973e-07)
(0.00128155 1.1231e-07 3.2917e-07)
(0.00127901 1.72371e-08 2.99336e-07)
(0.00127666 -1.17177e-07 2.53774e-07)
(0.00127396 -4.63797e-07 2.05563e-07)
(0.00127118 -5.6126e-07 1.26778e-07)
(0.0012687 9.76046e-09 3.15309e-07)
(0.00126657 3.71484e-07 4.95681e-07)
(0.00126438 9.31787e-07 4.77944e-07)
(0.00126211 6.46024e-07 2.39917e-07)
(0.00125964 1.13281e-07 2.4992e-07)
(0.00125734 9.39191e-08 3.14186e-07)
(0.00125512 1.50241e-08 3.68313e-07)
(0.00125212 4.13288e-07 3.09006e-07)
(0.00124941 2.7648e-07 3.34894e-07)
(0.00124751 4.24216e-07 5.25493e-07)
(-0.00162258 -0.0100162 -0.00262699)
(0.0206093 0.0132835 -0.000807234)
(0.0122941 0.0679597 0.0164645)
(-0.00521979 -0.00851763 0.000512959)
(0.00973424 -0.0130903 -0.00341205)
(-0.000955484 -0.0116083 -7.28947e-05)
(0.000215077 -0.000274029 2.84975e-05)
(0.00125867 0.000128333 5.48719e-05)
(0.00153832 0.000121375 6.30362e-07)
(0.00137809 7.29231e-05 4.16219e-07)
(0.00138142 4.61406e-05 3.69324e-07)
(0.00136184 2.83206e-05 1.04915e-06)
(0.00135327 1.80124e-05 5.79497e-07)
(0.00134689 1.10612e-05 3.39463e-07)
(0.00134135 6.65118e-06 3.01408e-07)
(0.00133666 4.06946e-06 2.20571e-07)
(0.00133293 2.66866e-06 3.34229e-07)
(0.0013297 1.55261e-06 3.33086e-07)
(0.0013265 1.13438e-06 5.00681e-07)
(0.00132358 6.51529e-07 3.73089e-07)
(0.00132078 1.93913e-07 3.65626e-07)
(0.00131809 3.02917e-07 4.58082e-07)
(0.00131557 4.88031e-08 3.54152e-07)
(0.00131282 1.17245e-07 3.76178e-07)
(0.0013102 5.09771e-08 2.47754e-07)
(0.00130759 -4.0912e-07 3.85005e-07)
(0.00130494 2.13697e-07 3.81137e-07)
(0.00130243 4.95836e-07 2.9017e-07)
(0.00129911 8.54515e-07 5.00905e-07)
(0.00129647 9.69716e-07 3.10231e-07)
(0.00129475 4.20361e-07 3.52043e-07)
(0.00129182 -1.55399e-07 2.81052e-07)
(0.0012887 2.68977e-07 3.40654e-07)
(0.00128631 1.36713e-07 3.21903e-07)
(0.00128388 1.82151e-07 2.85845e-07)
(0.00128135 -8.2151e-08 3.20862e-07)
(0.00127883 -1.81755e-07 1.63956e-07)
(0.00127599 -2.85129e-07 2.85302e-07)
(0.00127341 -3.64558e-07 2.98574e-07)
(0.0012715 -3.69014e-07 1.99644e-07)
(0.00126921 7.39484e-08 3.17644e-07)
(0.0012672 6.77448e-07 4.66733e-07)
(0.00126465 3.8194e-07 2.27065e-07)
(0.00126138 3.62526e-07 2.20567e-08)
(0.00125939 -9.85363e-08 3.39416e-07)
(0.00125755 -3.23585e-07 3.13186e-07)
(0.00125532 -8.78375e-07 1.06023e-07)
(0.00125234 -1.3276e-06 2.69341e-07)
(0.00124957 -5.24721e-07 3.26402e-07)
(0.00124711 4.51783e-08 3.26822e-07)
(-0.010202 -0.0198014 -0.00494591)
(-0.00838545 0.0317217 -0.00252002)
(-0.00688919 -0.00379496 -0.000559143)
(-0.0217042 -0.0112228 0.00373687)
(-0.0267229 -0.0164826 0.00485263)
(0.0133282 0.00877026 -0.0127147)
(0.00144327 0.000204881 3.91417e-06)
(0.00126718 0.000266664 5.93124e-05)
(0.00144219 0.000137876 5.57074e-07)
(0.00132301 8.88797e-05 3.28548e-07)
(0.00134663 5.37359e-05 2.98113e-07)
(0.00134092 3.3015e-05 4.32175e-07)
(0.00134042 2.06303e-05 3.09114e-07)
(0.00133761 1.26195e-05 3.35838e-07)
(0.00133579 7.65345e-06 4.6633e-07)
(0.0013338 4.60982e-06 3.35939e-07)
(0.00133111 2.86609e-06 3.34374e-07)
(0.00132844 1.83979e-06 3.72194e-07)
(0.00132615 9.45696e-07 3.00625e-07)
(0.0013233 8.63834e-07 3.40468e-07)
(0.00132084 7.77565e-07 2.43378e-07)
(0.00131827 5.96933e-07 3.40365e-07)
(0.00131529 4.90584e-07 3.0667e-07)
(0.00131265 2.56492e-07 3.34924e-07)