/*--------------------------------*- C++ -*----------------------------------*\
| =========                 |                                                 |
| \\      /  F ield         | OpenFOAM: The Open Source CFD Toolbox           |
|  \\    /   O peration     | Version:  5.0                                   |
|   \\  /    A nd           | Web:      www.OpenFOAM.org                      |
|    \\/     M anipulation  |                                                 |
\*---------------------------------------------------------------------------*/
FoamFile
{
    version     2.0;
    format      ascii;
    class       volVectorField;
    location    "3.5";
    object      U_0;
}
// * * * * * * * * * * * * * * * * * * * * * * * * * * * * * * * * * * * * * //

dimensions      [0 1 -1 0 0 0 0];

internalField   nonuniform List<vector> 
9046
(
(-0.00462207 -0.00513916 -0.000449895)
(0.00329788 0.00630417 0.000429433)
(-0.00433664 4.17081e-05 0.00316113)
(-0.0100727 0.0020746 -0.000532031)
(-0.00791043 0.00295413 0.00214342)
(-0.018498 -0.00868048 -0.000359981)
(0.000401126 1.47985e-05 2.94858e-05)
(0.000830819 -3.95831e-05 -1.94391e-06)
(0.000805331 2.90916e-06 -1.60727e-07)
(0.000807824 -7.0152e-06 5.41393e-08)
(0.00080882 -3.66104e-06 1.09139e-07)
(0.000807934 -2.8998e-06 5.10394e-08)
(0.000807735 -1.82554e-06 7.94048e-10)
(0.000806373 -8.74066e-07 7.62982e-08)
(0.00080456 -5.4645e-07 4.73047e-08)
(0.000803302 -3.0198e-07 1.8637e-07)
(0.000802082 -3.27408e-07 5.28978e-08)
(0.000800541 -1.85603e-07 7.71634e-08)
(0.000798695 -1.97554e-07 5.97797e-08)
(0.000797442 -3.59092e-07 1.04002e-07)
(0.000796363 -2.74608e-07 7.71417e-08)
(0.000794782 -1.46199e-07 1.74881e-08)
(0.000793148 -1.45474e-07 4.78535e-08)
(0.00079158 -5.96372e-08 4.40701e-08)
(0.00079016 1.02327e-07 4.91685e-08)
(0.000788718 2.44024e-07 5.49246e-08)
(0.000787358 2.08204e-07 6.29925e-08)
(0.000786228 7.90625e-08 4.67945e-08)
(0.000784114 1.79856e-07 5.45967e-08)
(0.000782003 -4.34748e-08 1.76138e-07)
(0.000780789 -6.36251e-07 -5.59916e-08)
(0.000779148 -5.41624e-07 7.36191e-09)
(0.000777747 -4.41386e-07 7.73215e-08)
(0.000776735 -1.97216e-07 5.2195e-08)
(0.00077538 4.28284e-08 4.84109e-08)
(0.00077374 2.35564e-07 7.7114e-08)
(0.000771733 3.59703e-07 1.25243e-08)
(0.00076996 2.70329e-07 1.71752e-08)
(0.000768646 4.65955e-07 4.09774e-08)
(0.000767509 5.21425e-07 6.31407e-08)
(0.000766245 1.99388e-07 3.01172e-08)
(0.000764766 2.22333e-07 7.24446e-08)
(0.000763453 -1.48774e-07 4.98894e-08)
(0.000761731 -2.18654e-07 2.48742e-07)
(0.000760143 -1.68306e-07 3.2209e-08)
(0.00075875 -2.14937e-07 5.59908e-08)
(0.000757396 -2.68876e-07 7.7635e-08)
(0.000756168 -4.74605e-07 1.65928e-07)
(0.000754473 -3.01231e-07 -2.29404e-08)
(0.000752704 -2.20562e-07 6.8385e-08)
(0.0101327 0.00430887 -0.000194047)
(-0.0204542 -0.0133725 0.00141504)
(0.00265491 -0.0172078 0.000961006)
(0.00404361 0.0040872 0.000273584)
(0.00399139 0.00715878 -0.00156738)
(-0.00327495 0.000849344 0.000282823)
(0.000320795 -8.70296e-05 4.07006e-05)
(0.000428319 -2.6524e-05 -8.66044e-07)
(0.000862367 -6.91558e-06 -1.05784e-06)
(0.000798341 -1.1779e-05 -4.75064e-07)
(0.00081271 -5.71044e-06 1.81958e-07)
(0.000809407 -3.66187e-06 3.66024e-08)
(0.000808548 -2.22972e-06 8.46233e-08)
(0.000806846 -1.57304e-06 4.54825e-08)
(0.000805409 -9.03062e-07 4.63099e-08)
(0.000803577 -5.10725e-07 7.18999e-08)
(0.000801863 -6.00345e-08 5.25428e-08)
(0.000800607 1.14592e-07 7.59544e-08)
(0.00079924 3.41946e-07 4.75975e-08)
(0.000797694 3.13287e-07 2.49738e-08)
(0.000796136 2.04657e-07 9.1813e-08)
(0.000794598 8.79884e-08 6.1658e-08)
(0.00079311 1.46587e-07 3.65586e-08)
(0.000791898 2.05322e-07 4.76898e-08)
(0.000790458 1.0496e-07 6.2531e-08)
(0.000788762 -1.05374e-08 7.14649e-08)
(0.000787072 -9.31016e-08 3.64334e-08)
(0.000785541 -3.06122e-07 4.86075e-08)
(0.00078412 -9.81306e-07 7.05872e-08)
(0.000782023 -7.93295e-07 -1.16916e-07)
(0.000780458 -5.45637e-07 1.28342e-07)
(0.000779519 -3.04841e-07 4.7907e-08)
(0.000778162 3.2244e-07 2.16337e-07)
(0.000776835 5.2388e-07 2.11083e-07)
(0.000775281 1.73059e-07 5.26068e-08)
(0.000773595 -1.09722e-08 7.40652e-08)
(0.000772055 -5.32517e-08 4.01624e-08)
(0.00077058 1.86622e-07 5.29518e-08)
(0.000769002 3.90731e-07 1.80231e-08)
(0.000767276 5.55222e-07 6.57779e-08)
(0.000765732 2.20805e-07 3.10687e-08)
(0.000764305 5.43853e-08 6.44342e-08)
(0.00076288 -2.58579e-07 6.18182e-08)
(0.000761685 -3.91112e-07 1.40366e-07)
(0.000760289 -1.26037e-07 5.48985e-08)
(0.000758811 -1.04499e-07 5.6149e-08)
(0.000757435 7.26718e-08 6.6215e-08)
(0.000756035 -1.2751e-07 3.94185e-08)
(0.000754441 -3.59884e-07 8.54166e-08)
(0.000753436 -2.37528e-07 2.71426e-08)
(0.0139661 -0.0175112 0.00122819)
(0.0366422 0.0186506 -0.00237852)
(-0.0365034 -0.012738 -0.0014341)
(0.0370258 -0.011573 0.00215529)
(-0.0357267 -0.0360438 0.00169103)
(-9.08918e-05 -0.00653201 -0.000515492)
(0.00196066 0.000649098 0.000141999)
(0.000461937 -4.05478e-05 -1.64363e-06)
(0.000890606 -1.99551e-05 -1.95351e-06)
(0.00080928 -9.29139e-06 -6.2975e-07)
(0.000819029 -5.02899e-06 1.55575e-07)
(0.00081232 -2.73021e-06 8.16151e-08)
(0.000810369 -1.64452e-06 3.84414e-08)
(0.000808046 -9.68075e-07 4.61612e-08)
(0.000805898 -5.76897e-07 5.0263e-08)
(0.000804361 -4.39236e-07 5.82973e-08)
(0.000802867 -1.51161e-07 4.40361e-08)
(0.000801044 -4.54003e-08 4.69372e-08)
(0.000798942 -9.9403e-08 9.9629e-08)
(0.000797269 3.6041e-08 5.00326e-08)
(0.00079608 1.18133e-07 3.41415e-08)
(0.000794706 1.2601e-07 4.76302e-08)
(0.000793292 2.73239e-07 5.43925e-08)
(0.000791525 2.31629e-07 8.29036e-08)
(0.000789888 5.77561e-08 4.97537e-08)
(0.00078847 2.49426e-08 4.07744e-08)
(0.000786989 -1.28969e-07 5.47467e-08)
(0.000785121 -1.21971e-07 5.91778e-08)
(0.00078351 -1.52723e-07 -4.72932e-08)
(0.000782553 1.12761e-07 4.59633e-08)
(0.000781403 6.14901e-07 8.92381e-08)
(0.000780233 6.11373e-07 6.41517e-08)
(0.000778781 4.05915e-07 3.05339e-07)
(0.000776544 3.47174e-07 1.29955e-07)
(0.000774709 1.37455e-07 8.50302e-08)
(0.000773456 1.07416e-07 5.00158e-08)
(0.000771979 9.76953e-08 5.90488e-08)
(0.000770512 8.37935e-08 4.87836e-08)
(0.000769103 5.01841e-08 4.54054e-08)
(0.000767293 -7.52665e-08 3.68427e-08)
(0.000765617 1.05654e-07 6.39016e-08)
(0.000764167 1.71012e-07 5.32884e-08)
(0.000762899 3.05972e-07 1.37967e-07)
(0.0007619 2.79745e-07 9.85355e-08)
(0.000760505 2.48766e-07 8.80813e-08)
(0.000758999 2.44865e-07 5.41028e-08)
(0.000757369 3.60838e-07 5.66446e-08)
(0.000755628 1.66253e-07 5.68406e-08)
(0.000754341 8.59469e-08 5.83875e-08)
(0.000753448 7.38123e-08 7.90086e-08)
(0.000245404 0.00919335 0.00113137)
(-0.0023271 0.00590249 -0.00125452)
(0.00531397 -0.0216919 -0.00188864)
(0.0068329 0.0039991 0.000898147)
(-0.0091663 0.0191768 -0.000724514)
(0.00550865 -0.00863908 -0.000657246)
(0.00039733 0.000606591 -4.2058e-06)
(0.00030736 -2.27311e-05 2.70621e-06)
(0.000884627 3.72994e-06 -2.0514e-06)
(0.000816986 1.65806e-06 -3.84188e-07)
(0.000820927 8.24618e-07 1.2232e-07)
(0.000813646 6.19565e-07 3.42518e-09)
(0.000810754 2.19429e-07 4.87684e-08)
(0.000808183 1.55012e-07 4.62517e-08)
(0.000806071 2.46052e-07 4.46032e-08)
(0.00080411 2.37257e-07 4.36808e-08)
(0.000802356 -1.13587e-07 4.88595e-08)
(0.000800672 -2.42497e-07 9.15656e-08)
(0.000799342 -3.43061e-07 4.22728e-08)
(0.000797966 -1.65352e-07 2.6009e-08)
(0.000796248 -1.21132e-07 7.47627e-08)
(0.00079479 -1.45915e-07 4.87803e-08)
(0.00079324 -1.84162e-07 2.61302e-08)
(0.000791627 -1.17231e-07 5.86868e-08)
(0.000790198 6.82695e-08 5.44005e-08)
(0.000788529 1.34809e-07 3.08817e-08)
(0.000786888 2.59765e-07 6.2689e-08)
(0.000785511 3.37646e-07 8.22203e-08)
(0.000784412 8.61358e-07 1.88489e-08)
(0.00078298 8.20644e-07 3.18992e-08)
(0.000781076 8.03821e-07 6.26242e-08)
(0.000779252 7.2885e-07 -2.15867e-08)
(0.000777827 1.95713e-07 4.77272e-08)
(0.000776497 -9.46699e-08 4.65071e-08)
(0.00077498 1.03344e-07 7.3435e-09)
(0.000773545 8.96269e-08 7.92125e-08)
(0.000772025 8.04446e-08 3.48199e-08)
(0.000770521 8.63015e-08 4.18851e-08)
(0.000768803 -2.94791e-07 1.21723e-08)
(0.000767346 -3.07553e-07 2.5741e-08)
(0.000766039 -5.21912e-08 -3.81659e-08)
(0.000764553 4.51188e-08 3.80913e-08)
(0.000763012 3.16206e-07 1.52039e-07)
(0.00076161 3.84561e-07 -2.87134e-08)
(0.000760241 6.01942e-08 2.7087e-08)
(0.000758947 6.29531e-09 3.93791e-08)
(0.000757333 -8.64751e-08 8.76683e-08)
(0.000755689 7.26838e-08 4.22016e-08)
(0.000754322 2.79017e-07 4.3251e-08)
(0.000753236 2.24508e-07 4.67869e-08)
(0.000342006 -0.00591005 0.000393732)
(-0.0118116 -0.00151708 0.00508145)
(0.00449236 0.00979884 -0.00403644)
(0.00641319 -0.00639804 0.000606585)
(0.00927437 -0.00867864 -0.00315055)
(-0.00047449 0.00291274 0.000207954)
(0.000270574 0.00023329 1.16342e-05)
(0.000480304 -2.21017e-05 3.43026e-05)
(0.000887942 2.02001e-05 -1.08699e-06)
(0.000805488 8.57959e-06 -5.74799e-07)
(0.000817668 4.97607e-06 1.77691e-07)
(0.000811525 2.55531e-06 4.64206e-09)
(0.000809764 1.68951e-06 1.5398e-07)
(0.000808064 8.94193e-07 4.93027e-08)
(0.00080599 3.39542e-07 1.07823e-08)
(0.000803906 1.43997e-07 3.82763e-08)
(0.000802263 1.66529e-07 4.87903e-08)
(0.000800756 7.95511e-08 4.92192e-08)
(0.000799039 1.82887e-07 6.03561e-08)
(0.000797548 1.06719e-07 9.78308e-08)
(0.000796105 -1.61156e-07 6.4596e-08)
(0.00079463 9.72491e-08 2.21049e-08)
(0.000793329 -8.36655e-09 9.75713e-08)
(0.000791842 5.23369e-08 9.46199e-08)
(0.000790204 1.00208e-07 6.29967e-08)
(0.000788708 -4.54347e-08 5.14481e-08)
(0.00078724 1.26256e-07 6.74515e-08)
(0.000785868 1.99374e-07 6.50158e-09)
(0.000784107 2.39297e-07 -4.37037e-09)
(0.000782473 1.27887e-07 1.94118e-08)
(0.000781281 4.42234e-08 4.83795e-08)
(0.000779467 -1.98915e-07 3.43628e-08)
(0.000777748 1.24704e-07 3.56109e-07)
(0.000776428 2.72258e-08 5.4786e-08)
(0.000774939 6.03158e-08 5.54599e-08)
(0.000773426 -9.63412e-08 4.66729e-08)
(0.000771974 -2.54368e-07 3.27418e-08)
(0.000770044 -3.7456e-07 6.23374e-08)
(0.000768613 -2.40564e-07 9.88217e-08)
(0.000767598 -3.00807e-08 8.66236e-08)
(0.000766059 -1.8774e-08 4.69254e-08)
(0.000764626 4.09279e-08 4.17311e-07)
(0.00076332 3.72297e-08 -6.99924e-09)
(0.000761577 2.67917e-08 8.39933e-08)
(0.00076003 -1.13889e-07 1.5106e-07)
(0.000758815 -2.11903e-07 4.7389e-08)
(0.000757451 -4.69824e-07 -4.66435e-08)
(0.000756084 -3.59822e-07 -2.41909e-07)
(0.000754524 -2.09309e-07 1.51865e-07)
(0.000752822 1.06781e-07 9.48388e-08)
(0.0237117 -0.00164669 -0.00186161)
(0.0395767 0.0537208 -0.00541128)
(0.00226549 -0.0272028 0.000941691)
(0.0188267 -0.0139805 0.00123335)
(-0.00756948 -0.0114652 0.00134552)
(0.000943062 -0.000554597 -0.000649381)
(0.000927575 -0.000376686 -6.75863e-06)
(0.000478557 2.65694e-05 4.00886e-05)
(0.000867293 7.73903e-06 -1.10029e-06)
(0.000797677 8.01476e-06 -4.72726e-07)
(0.000813296 4.71705e-06 1.89968e-07)
(0.000809475 3.00428e-06 2.46489e-08)
(0.000808641 2.09988e-06 1.17848e-07)
(0.000806473 1.23327e-06 4.58001e-08)
(0.000805121 6.45238e-07 6.36699e-08)
(0.000803887 2.96944e-07 6.61034e-08)
(0.000802271 2.10767e-07 5.04494e-08)
(0.000800689 1.5369e-07 7.42085e-08)
(0.000799374 -2.8402e-09 2.49263e-08)
(0.000797534 2.03292e-07 5.00509e-08)
(0.000796235 4.06206e-07 -2.92404e-08)
(0.000794981 3.31316e-07 2.44737e-07)
(0.000793183 2.834e-07 7.56142e-08)
(0.000791762 1.29232e-07 8.50129e-08)
(0.000790076 4.33592e-08 7.1744e-08)
(0.000788561 1.17573e-07 6.13802e-08)
(0.000787194 -1.51751e-08 3.87862e-08)
(0.00078565 -1.18567e-07 1.52638e-08)
(0.00078432 -1.27165e-07 5.80329e-08)
(0.000782734 -2.35583e-07 6.35019e-08)
(0.000780667 -4.57405e-07 -1.58899e-08)
(0.000779351 -2.9116e-07 1.82353e-07)
(0.00077811 -2.41199e-07 1.77853e-08)
(0.000776415 -1.54015e-07 6.95341e-08)
(0.000774825 -2.00019e-07 -1.31427e-08)
(0.000773151 -9.72356e-08 4.51599e-08)
(0.000771679 -1.15026e-07 7.74312e-08)
(0.00077054 -3.43953e-08 5.01562e-08)
(0.000769236 2.12703e-07 1.03634e-07)
(0.000767624 1.15112e-07 6.34444e-08)
(0.000766128 1.40055e-07 5.73068e-08)
(0.000764623 2.56286e-07 1.6708e-07)
(0.000762994 4.25272e-08 4.71416e-08)
(0.000761422 -1.502e-07 1.41617e-08)
(0.000759944 -9.40079e-09 3.8494e-08)
(0.000758506 -1.95381e-07 4.59566e-08)
(0.000757152 -4.90809e-07 -3.40946e-07)
(0.000756018 -5.53757e-07 5.82072e-08)
(0.000754906 -5.06435e-07 9.63813e-08)
(0.000753364 -2.42137e-07 1.71485e-07)
(0.020566 -0.00655309 -0.000829988)
(0.0466031 0.0102911 -0.0096574)
(-0.00700271 0.0130272 -0.00291091)
(-0.0443896 0.0153967 -0.0114739)
(0.00352857 -0.0164204 -0.00039041)
(0.000417978 0.0101649 0.000209816)
(-6.37805e-05 -0.000122969 5.00866e-05)
(0.000417692 -2.23051e-06 2.32119e-05)
(0.000849387 2.66116e-06 -1.96141e-06)
(0.000801756 4.50699e-06 -3.36218e-07)
(0.000811321 3.37917e-06 1.35806e-07)
(0.0008082 2.61016e-06 3.59861e-08)
(0.000807516 1.58142e-06 5.44084e-08)
(0.000806224 1.09541e-06 5.02377e-08)
(0.000804808 7.64142e-07 3.28756e-08)
(0.000803355 5.991e-07 5.23621e-08)
(0.00080208 4.47122e-07 4.94106e-08)
(0.000800487 3.09476e-07 3.11287e-08)
(0.000799098 3.62557e-07 4.72247e-08)
(0.000798056 1.76464e-07 6.86997e-08)
(0.000796262 3.45741e-07 -3.77967e-08)
(0.000794473 4.84772e-08 4.17107e-08)
(0.000793075 1.37092e-07 3.2707e-08)
(0.00079154 2.60783e-08 5.16655e-08)
(0.000790188 3.32207e-08 3.7236e-09)
(0.000788634 1.44251e-07 1.87123e-07)
(0.000786945 -5.86604e-08 5.08054e-08)
(0.000785729 -7.56187e-08 6.94906e-08)
(0.000783963 -3.84522e-07 2.13875e-08)
(0.000782063 -5.70347e-07 4.25713e-08)
(0.000781214 -2.56352e-07 1.39537e-07)
(0.000779742 1.85689e-09 5.68637e-08)
(0.000777922 -8.7348e-08 3.28857e-08)
(0.000776482 -9.99067e-08 5.50183e-08)
(0.000775011 -1.24329e-07 3.20723e-08)
(0.000773534 -1.55552e-08 7.1985e-08)
(0.000772053 1.20247e-07 4.65632e-08)
(0.000770454 1.617e-07 2.43508e-08)
(0.000768799 1.33757e-07 5.32892e-08)
(0.000767506 1.91191e-07 4.42228e-08)
(0.000766234 3.35026e-10 5.88263e-08)
(0.000764503 -2.35706e-07 -8.43597e-09)
(0.000762812 -2.17614e-07 6.45068e-08)
(0.000761512 -1.90184e-07 3.89326e-08)
(0.000759974 -1.75079e-07 -1.77663e-11)
(0.000758216 -4.67029e-08 4.82768e-08)
(0.000757007 -5.50215e-08 9.91322e-09)
(0.00075607 -3.0414e-07 7.12598e-08)
(0.000754923 -2.20826e-07 2.63795e-08)
(0.000753755 -2.42722e-07 8.09545e-08)
(0.00561504 -0.0171118 0.00104055)
(-0.00240772 -0.0025712 0.00245426)
(0.00721127 0.00112963 -0.000180631)
(-0.00492805 -0.00272156 0.000951445)
(-0.00178204 0.00530702 0.00399546)
(0.0145913 -0.0125517 0.00109616)
(0.00150055 -0.000794768 1.87076e-05)
(0.000488087 2.54117e-05 1.90795e-06)
(0.000870595 9.21134e-06 -1.34738e-06)
(0.000798605 4.95212e-06 -4.48974e-07)
(0.000810883 3.03202e-06 1.594e-07)
(0.000807199 1.91577e-06 3.00795e-08)
(0.000806728 1.17507e-06 5.83828e-08)
(0.000805439 6.91676e-07 5.0742e-08)
(0.000804492 3.77946e-07 9.21813e-08)
(0.000803484 2.14529e-07 5.05642e-08)
(0.000801904 4.1889e-08 1.04485e-07)
(0.000800579 3.74758e-08 6.79601e-08)
(0.000799205 6.87533e-08 7.07388e-08)
(0.000797511 -1.02287e-08 7.83441e-08)
(0.000796074 -2.37414e-07 4.78109e-08)
(0.000794719 -9.82295e-08 5.59604e-08)
(0.000793155 -2.61941e-07 2.78834e-08)
(0.000791632 -1.34522e-07 4.73955e-08)
(0.000790223 -2.647e-07 6.79281e-08)
(0.000788446 -2.85653e-07 4.44884e-09)
(0.000786919 -6.36827e-08 2.66136e-08)
(0.000785246 1.05315e-08 7.17162e-08)
(0.000783707 -1.79942e-07 3.00309e-08)
(0.0007829 2.78165e-07 5.33743e-08)
(0.000781386 3.97858e-07 1.13777e-07)
(0.000779565 1.07803e-07 3.51031e-08)
(0.000777983 2.44459e-07 4.85722e-08)
(0.00077637 6.56826e-08 4.95401e-08)
(0.000774932 1.18108e-08 4.67049e-08)
(0.000773458 -1.46909e-07 5.96734e-08)
(0.0007719 -1.71708e-07 5.60153e-08)
(0.000770557 -2.5286e-07 6.43523e-08)
(0.000769271 3.75261e-08 3.97252e-08)
(0.000767456 1.02814e-07 1.58831e-08)
(0.000765594 -8.96563e-08 1.8123e-08)
(0.000764352 -6.4481e-08 4.45502e-08)
(0.000763053 -9.53335e-08 3.05859e-08)
(0.000761477 -1.18741e-07 4.95114e-08)
(0.000760125 -8.57307e-08 5.84014e-08)
(0.000758657 1.08569e-07 4.61176e-08)
(0.000756832 4.73748e-07 5.74264e-08)
(0.000755813 6.35758e-07 6.97057e-08)
(0.000754991 2.67026e-07 4.19668e-08)
(0.000753943 3.89015e-08 -3.43553e-08)
(0.017196 0.0082645 0.000372269)
(-0.00454438 -0.00537087 -0.000623672)
(0.0059924 0.00371237 -3.62495e-05)
(0.000205513 -0.00841236 -0.000319787)
(0.000533814 0.000693585 0.000467654)
(0.0083771 -0.00869972 -7.17788e-05)
(0.00216265 -0.000855264 0.000107896)
(0.000470052 2.78503e-05 1.10418e-06)
(0.000846077 -5.68897e-06 -1.35342e-06)
(0.000793913 3.22126e-06 -3.57728e-07)
(0.000807519 3.34794e-07 1.60364e-07)
(0.000805876 4.64569e-07 3.99141e-08)
(0.000805985 1.99135e-07 5.66139e-08)
(0.000805227 -1.47462e-07 5.40754e-08)
(0.000804211 1.96641e-08 3.87869e-08)
(0.000802936 -1.87994e-09 1.19324e-07)
(0.00080186 -1.35083e-07 8.98859e-08)
(0.000800521 -1.58023e-07 2.40419e-07)
(0.00079904 -2.48488e-07 6.8334e-08)
(0.000797675 3.98688e-08 5.23274e-08)
(0.000796153 -2.81107e-08 4.57616e-08)
(0.000794445 -1.25538e-07 3.49649e-08)
(0.000793031 -2.56491e-07 1.05513e-08)
(0.00079154 -2.50407e-07 5.25628e-08)
(0.000790002 -2.93513e-07 2.60886e-08)
(0.000788888 -3.67783e-07 -1.51243e-07)
(0.000787317 -1.4683e-07 1.19581e-07)
(0.000785585 -8.08463e-08 4.81049e-08)
(0.000784297 1.18092e-07 4.18869e-08)
(0.000782785 3.73173e-07 5.33217e-08)
(0.000781 2.33478e-07 2.23568e-07)
(0.000779548 1.2731e-07 5.9866e-08)
(0.000777869 -1.88472e-09 7.23253e-08)
(0.00077619 -7.72764e-08 -1.99985e-08)
(0.000774746 -1.1627e-07 1.63604e-07)
(0.000773305 -2.31084e-07 3.53703e-08)
(0.000771923 -3.23277e-07 -5.77237e-08)
(0.000770716 -1.41262e-07 5.32634e-08)
(0.000769244 -4.09332e-07 8.174e-08)
(0.000767347 -6.07269e-07 3.73051e-08)
(0.000766025 -2.86602e-07 4.53152e-08)
(0.000764497 -1.98567e-07 6.95849e-09)
(0.000762745 2.31866e-08 4.35529e-08)
(0.000761525 1.02302e-07 4.42765e-08)
(0.000760259 2.08509e-07 6.33498e-08)
(0.000758914 2.28678e-07 1.21396e-08)
(0.000757663 4.32884e-07 6.58182e-08)
(0.000755808 9.72315e-07 2.57065e-08)
(0.000754176 6.45419e-07 -3.97923e-08)
(0.000753371 2.82691e-07 8.7567e-08)
(-0.0120115 -0.0254798 0.00114062)
(0.00752756 -0.00881841 0.000804355)
(0.00286879 -0.00178953 -0.000207837)
(-0.0183831 -0.0037708 0.000145143)
(0.00333989 -0.00385641 0.000227379)
(0.00488394 -0.00827842 -0.000245819)
(0.000401463 9.56484e-05 3.58574e-05)
(0.000840418 2.44132e-05 -1.76723e-06)
(0.000804356 -1.39281e-05 -2.14377e-07)
(0.000806378 -2.8453e-06 6.88791e-08)
(0.000807483 -2.86319e-06 1.03131e-07)
(0.000807062 -1.87772e-06 2.26573e-07)
(0.000805983 -1.26465e-06 5.52206e-08)
(0.000805228 -5.06912e-07 8.68667e-10)
(0.000804683 -3.66173e-07 5.37816e-08)
(0.000803296 -2.38005e-07 6.21374e-08)
(0.000801713 -7.90347e-08 5.05674e-08)
(0.000800441 -6.32607e-08 3.77417e-07)
(0.000799455 -6.47978e-08 7.80055e-08)
(0.000797788 -3.40998e-07 2.21033e-08)
(0.000795868 -2.52317e-07 5.68257e-08)
(0.000794435 -1.7516e-07 5.91098e-08)
(0.000793002 1.61171e-08 5.64681e-08)
(0.000791589 -8.28015e-08 4.53965e-08)
(0.000790081 4.81119e-08 -4.64383e-08)
(0.000788633 4.38078e-08 -8.09922e-11)
(0.000787281 -8.78059e-08 7.54859e-08)
(0.000785578 7.65109e-08 4.84324e-08)
(0.000784273 4.27055e-07 -1.15055e-07)
(0.000783041 -6.99303e-08 3.46195e-08)
(0.000781076 -1.98637e-07 7.64866e-08)
(0.00077927 -2.40652e-07 5.90373e-08)
(0.000777728 -5.21413e-07 3.32615e-08)
(0.000776228 -3.40878e-07 1.54751e-07)
(0.00077474 -8.81945e-08 2.39572e-07)
(0.0007732 1.6549e-07 -1.4743e-08)
(0.000772014 2.59542e-07 7.69e-08)
(0.000770451 1.43319e-08 4.41202e-08)
(0.000768691 -3.46169e-07 2.1083e-09)
(0.000767613 -4.65595e-07 6.20827e-08)
(0.000766108 -2.19012e-07 6.2414e-08)
(0.00076474 -2.91309e-07 9.26207e-08)
(0.00076343 -4.82121e-09 9.63783e-08)
(0.000761707 2.75491e-07 3.01603e-08)
(0.000760282 1.60974e-07 -2.99488e-08)
(0.000758935 1.85015e-07 4.25614e-08)
(0.000757756 3.08645e-08 1.12426e-08)
(0.000756072 -2.71749e-08 2.67691e-08)
(0.000754116 3.20276e-07 -2.17704e-08)
(0.000752785 2.16256e-07 7.00731e-08)
(0.00530245 0.00131391 -0.000546681)
(0.00206911 -0.00732329 0.000106354)
(0.0406166 0.00221038 -0.0234573)
(-0.0051063 -0.00715724 -0.00689352)
(-0.0271877 -0.000110349 -0.0231567)
(-0.0332545 0.0249773 -0.00463148)
(0.000865323 -2.18959e-06 5.0713e-05)
(0.00139451 -7.50751e-05 3.74971e-07)
(0.0013469 1.86153e-07 3.09661e-07)
(0.00134885 -1.43883e-05 3.4523e-07)
(0.00134921 -7.75751e-06 3.71076e-07)
(0.00134697 -5.87398e-06 2.52235e-07)
(0.00134622 -3.69334e-06 2.6727e-07)
(0.00134367 -1.8537e-06 3.50753e-07)
(0.00134049 -1.17157e-06 3.42828e-07)
(0.00133824 -6.90781e-07 4.63315e-07)
(0.00133609 -6.52522e-07 3.36263e-07)
(0.00133354 -3.92157e-07 3.61894e-07)
(0.00133044 -3.92411e-07 3.84619e-07)
(0.00132827 -6.05387e-07 4.22539e-07)
(0.00132646 -4.33181e-07 3.76815e-07)
(0.00132381 -1.52982e-07 3.35791e-07)
(0.00132109 -1.78605e-07 3.19542e-07)
(0.00131854 -4.87005e-08 2.87049e-07)
(0.00131618 2.7188e-07 3.08458e-07)
(0.00131374 5.24911e-07 3.14203e-07)
(0.00131147 4.23884e-07 2.81713e-07)
(0.00130961 1.4842e-07 3.34815e-07)
(0.00130615 2.95086e-07 4.11058e-07)
(0.00130269 -1.86419e-07 7.38092e-07)
(0.00130064 -1.09577e-06 2.42648e-07)
(0.00129787 -9.23994e-07 1.59354e-07)
(0.00129558 -6.96617e-07 3.4377e-07)
(0.00129398 -2.6177e-07 4.22221e-07)
(0.00129174 1.23377e-07 3.22253e-07)
(0.00128896 4.12901e-07 3.2437e-07)
(0.00128565 5.45456e-07 3.29352e-07)
(0.00128269 4.71436e-07 2.60552e-07)
(0.0012806 8.44931e-07 2.10839e-07)
(0.00127877 8.45898e-07 3.38411e-07)
(0.00127657 3.2011e-07 2.82135e-07)
(0.00127407 3.40233e-07 3.48262e-07)
(0.00127203 -2.94083e-07 2.85467e-07)
(0.00126915 -3.7369e-07 7.21483e-07)
(0.00126645 -3.13254e-07 2.88954e-07)
(0.00126416 -3.99941e-07 3.38399e-07)
(0.00126189 -4.05815e-07 3.41213e-07)
(0.00125989 -7.31303e-07 4.53928e-07)
(0.00125703 -5.06777e-07 2.11346e-07)
(0.00125408 -3.91533e-07 3.41717e-07)
(0.0124954 0.00113504 -0.0012358)
(0.0182787 0.0488113 0.00198916)
(0.00954539 -0.00754138 -0.000144223)
(0.000972723 -0.00208065 0.00158503)
(0.00550727 -0.0177821 -0.00228304)
(-0.012832 -0.00104406 0.000998163)
(0.00101647 0.000257803 3.66298e-05)
(0.00130059 -8.50747e-05 -6.88655e-09)
(0.00144414 -1.20349e-05 4.06777e-07)
(0.00133419 -1.98329e-05 3.29115e-07)
(0.00135628 -9.68459e-06 3.36575e-07)
(0.00134982 -6.20682e-06 3.36682e-07)
(0.00134777 -3.78296e-06 3.99617e-07)
(0.00134457 -2.68317e-06 3.352e-07)
(0.00134192 -1.55718e-06 3.36258e-07)
(0.00133876 -9.34255e-07 5.95283e-07)
(0.00133584 -1.54247e-07 3.36602e-07)
(0.00133365 1.12195e-07 3.99055e-07)
(0.00133133 4.96193e-07 3.06044e-07)
(0.00132875 4.64299e-07 3.02336e-07)
(0.00132615 3.38615e-07 3.79735e-07)
(0.00132354 1.58537e-07 3.69789e-07)
(0.00132104 3.4158e-07 2.81001e-07)
(0.00131909 4.32471e-07 5.48349e-07)
(0.00131669 2.58487e-07 3.19654e-07)
(0.00131378 3.52644e-08 3.36357e-07)
(0.00131096 -9.18281e-08 4.07075e-07)
(0.00130846 -4.79517e-07 3.28749e-07)
(0.00130603 -1.60361e-06 4.09144e-07)
(0.00130265 -1.2627e-06 1.77211e-07)
(0.0013002 -8.64171e-07 3.59787e-07)
(0.00129858 -4.88507e-07 3.05335e-07)
(0.00129635 6.50769e-07 6.93372e-07)
(0.00129415 9.34229e-07 7.72578e-07)
(0.00129155 3.10978e-07 2.78818e-07)
(0.00128873 2.93646e-09 3.42852e-07)
(0.00128618 -2.80473e-08 3.25335e-07)
(0.00128381 3.67671e-07 3.65928e-07)
(0.00128112 7.53735e-07 3.19239e-07)
(0.00127822 9.23548e-07 3.23932e-07)
(0.00127571 3.38459e-07 1.1979e-07)
(0.00127329 2.68653e-08 3.62983e-07)
(0.00127094 -4.19916e-07 3.58477e-07)
(0.00126906 -7.28766e-07 4.34358e-07)
(0.00126675 -2.31533e-07 3.53942e-07)
(0.00126432 -2.2715e-07 3.37619e-07)
(0.00126204 1.64249e-07 4.60411e-07)
(0.00125964 -1.8923e-07 3.07491e-07)
(0.00125701 -5.64393e-07 3.62299e-07)
(0.0012553 -4.00432e-07 2.18436e-07)
(0.011381 -0.0036311 -0.00546114)
(0.0661517 0.0148684 0.037665)
(-0.00462353 -0.0107576 -0.00228749)
(0.0269907 -0.020579 -0.0550539)
(0.013611 -0.0209879 0.013239)
(0.0184554 -0.00116653 0.00340234)
(0.00171754 0.00296041 0.000140146)
(0.0014064 -0.000117322 -1.25646e-08)
(0.00149028 -2.96154e-05 -3.27847e-07)
(0.00135169 -1.33248e-05 3.29901e-07)
(0.00136635 -7.09501e-06 3.40224e-07)
(0.0013544 -3.76193e-06 3.87704e-07)
(0.00135066 -2.26615e-06 3.37791e-07)
(0.00134648 -1.32634e-06 3.36352e-07)
(0.00134269 -7.8312e-07 3.35292e-07)
(0.00134 -6.08706e-07 3.35659e-07)
(0.00133741 -1.96619e-07 3.34369e-07)
(0.00133435 -4.75233e-08 2.70655e-07)
(0.00133088 -1.78937e-07 3.70454e-07)
(0.00132807 2.8849e-08 3.28847e-07)
(0.00132607 1.64117e-07 2.62338e-07)
(0.00132381 1.90546e-07 3.28435e-07)
(0.00132143 4.61286e-07 3.73682e-07)
(0.00131843 4.14184e-07 3.03984e-07)
(0.00131568 5.6217e-08 3.3827e-07)
(0.0013133 4.6288e-08 3.12354e-07)
(0.00131083 -1.69394e-07 3.43375e-07)
(0.00130772 -1.34416e-07 3.19009e-07)
(0.00130518 -1.95361e-07 1.45315e-07)
(0.00130362 3.27865e-07 2.43065e-07)
(0.00130161 1.07257e-06 3.29698e-07)
(0.00129977 1.04147e-06 3.1669e-07)
(0.00129735 6.76346e-07 8.21048e-07)
(0.00129355 5.56401e-07 4.50369e-07)
(0.00129057 1.86448e-07 3.07874e-07)
(0.00128854 1.32372e-07 3.32737e-07)
(0.00128611 1.45531e-07 2.81155e-07)
(0.00128366 1.20908e-07 3.41017e-07)
(0.00128129 3.29386e-08 3.31561e-07)
(0.00127825 -1.14894e-07 3.04596e-07)
(0.00127545 1.38612e-07 3.45313e-07)
(0.00127313 2.77964e-07 2.94448e-07)
(0.0012711 5.91086e-07 5.74831e-07)
(0.00126939 5.66583e-07 3.27933e-07)
(0.00126708 5.36865e-07 3.29661e-07)
(0.00126465 4.97238e-07 3.14032e-07)
(0.00126194 6.17901e-07 3.50345e-07)
(0.00125898 3.41737e-07 2.13935e-07)
(0.00125678 1.62162e-07 3.29587e-07)
(0.00125529 1.308e-07 3.20846e-07)
(0.00320802 0.00924266 -0.00190616)
(0.0112693 0.00100011 0.00271808)
(0.011078 0.00125436 -0.00214956)
(0.00321896 -0.019848 0.0014714)
(-0.0188284 -0.0151664 0.00405087)
(0.0114748 0.00138806 9.09156e-05)
(0.000957765 0.00308976 7.96266e-05)
(0.00154188 -0.000116423 1.31304e-05)
(0.00147541 1.17936e-05 2.83383e-07)
(0.00136227 6.20267e-06 2.74565e-07)
(0.00136825 3.48528e-06 3.42079e-07)
(0.00135586 2.34439e-06 3.19614e-07)
(0.00135082 1.164e-06 3.37328e-07)
(0.00134642 7.65309e-07 3.36457e-07)
(0.00134282 7.34725e-07 3.35019e-07)
(0.00133949 6.11238e-07 3.3375e-07)
(0.00133654 -4.99261e-08 3.34271e-07)
(0.00133368 -2.80918e-07 3.49259e-07)
(0.00133142 -5.20743e-07 3.26945e-07)
(0.00132918 -3.03255e-07 2.992e-07)
(0.00132635 -2.08544e-07 3.58981e-07)
(0.00132391 -2.50598e-07 3.32776e-07)
(0.00132132 -3.50166e-07 3.20196e-07)
(0.00131858 -2.3281e-07 3.8508e-07)
(0.00131623 5.42072e-08 3.28429e-07)
(0.0013135 1.912e-07 2.86831e-07)
(0.00131073 4.38095e-07 3.95118e-07)
(0.00130843 6.40652e-07 4.01637e-07)
(0.0013066 1.52604e-06 2.95713e-07)
(0.00130423 1.3978e-06 4.93975e-07)
(0.00130108 1.35924e-06 4.34389e-07)
(0.00129808 1.28172e-06 2.83767e-07)
(0.00129574 3.58222e-07 3.24972e-07)
(0.00129353 -1.36504e-07 3.19593e-07)
(0.00129102 1.78384e-07 2.09962e-07)
(0.00128868 1.44572e-07 5.55647e-07)
(0.00128617 9.86788e-08 3.0363e-07)
(0.00128367 8.5126e-08 3.36973e-07)
(0.00128083 -5.29707e-07 2.25975e-07)
(0.00127835 -5.53998e-07 2.0305e-07)
(0.0012762 -8.34173e-08 2.18789e-07)
(0.00127385 1.63577e-07 3.10466e-07)
(0.0012713 5.97258e-07 5.70256e-07)
(0.00126899 6.78739e-07 2.27984e-07)
(0.00126665 1.35694e-07 3.33405e-07)
(0.00126442 4.02828e-08 3.16107e-07)
(0.00126184 -1.41301e-07 3.94569e-07)
(0.00125907 1.17633e-07 2.73281e-07)
(0.00125674 4.42505e-07 3.10956e-07)
(0.00125494 3.8789e-07 2.24339e-07)
(0.00107396 -0.00584457 -0.00186486)
(0.0186513 0.0139077 0.000859991)
(0.0102743 0.0672652 0.0160719)
(-0.00533745 -0.0114552 0.000126308)
(0.0132726 -0.0170608 -0.00452921)
(-0.00117814 -0.00892125 0.000504079)
(6.814e-05 -0.000473419 2.84118e-05)
(0.00112593 6.97494e-05 5.45251e-05)
(0.00147742 3.84612e-05 6.24691e-07)
(0.00134097 1.75015e-05 4.13698e-07)
(0.0013614 1.0361e-05 3.60062e-07)
(0.00135142 5.56626e-06 3.60663e-07)
(0.00134864 3.68992e-06 3.76697e-07)
(0.00134591 2.0238e-06 3.36307e-07)
(0.00134248 8.89367e-07 3.18751e-07)
(0.00133901 4.39e-07 3.49174e-07)
(0.00133628 4.05354e-07 3.33968e-07)
(0.00133376 1.90276e-07 3.30813e-07)
(0.00133085 3.73824e-07 3.35176e-07)
(0.00132847 2.90542e-07 3.48991e-07)
(0.00132614 -1.86869e-07 3.64226e-07)
(0.00132363 1.93905e-07 3.14359e-07)
(0.00132145 1.45285e-09 7.25675e-07)
(0.00131894 7.65386e-08 3.79445e-07)
(0.00131621 1.77425e-07 2.44952e-07)
(0.00131378 -1.39205e-07 3.60753e-07)
(0.00131138 1.97919e-07 3.81927e-07)
(0.00130908 3.52678e-07 2.85543e-07)
(0.00130611 4.85059e-07 2.64364e-07)
(0.0013034 3.23544e-07 2.99242e-07)
(0.00130145 1.29545e-07 3.47472e-07)
(0.00129851 -2.82191e-07 3.14089e-07)
(0.00129557 2.60729e-07 6.92903e-07)
(0.00129332 8.67519e-08 3.33545e-07)
(0.00129092 1.30706e-07 3.10084e-07)
(0.00128843 -1.45942e-07 3.21827e-07)
(0.00128603 -4.12547e-07 3.43874e-07)
(0.00128288 -6.05423e-07 3.20602e-07)
(0.00128049 -4.18068e-07 4.29412e-07)
(0.00127881 -1.12404e-07 2.96538e-07)
(0.00127635 -8.9787e-10 3.18383e-07)
(0.00127397 1.35447e-07 1.12093e-06)
(0.00127173 5.43202e-08 2.43285e-07)
(0.00126881 3.25229e-08 3.15039e-07)
(0.00126628 -2.77435e-07 6.2253e-07)
(0.00126431 -3.94203e-07 3.16793e-07)
(0.00126203 -8.56664e-07 1.03892e-07)
(0.00125971 -7.2299e-07 -2.16807e-08)
(0.00125711 -3.67173e-07 5.03573e-07)
(0.00125425 1.82675e-07 4.22359e-07)
(-0.0202021 -0.0200018 -0.0141199)
(-0.00152627 0.0178715 -0.00467135)
(-0.00891534 -0.0034614 -0.00065614)
(-0.023095 -0.0127204 0.00340538)
(-0.0181943 -0.00724578 0.00494506)
(0.0134787 0.008214 -0.0112684)
(0.00118802 -0.000242906 4.96718e-06)
(0.0011709 0.000117715 5.93464e-05)
(0.00144174 1.63387e-05 5.66786e-07)
(0.00132662 1.55629e-05 3.91176e-07)
(0.00135314 9.2922e-06 2.98528e-07)
(0.0013474 5.92311e-06 3.01756e-07)
(0.00134632 4.10718e-06 4.41609e-07)
(0.00134288 2.42876e-06 3.35361e-07)
(0.00134081 1.30046e-06 3.51454e-07)
(0.00133887 6.33972e-07 3.39527e-07)
(0.00133623 4.48822e-07 3.33896e-07)
(0.00133363 3.27566e-07 3.73936e-07)
(0.00133154 7.00553e-08 3.05215e-07)
(0.00132847 4.70304e-07 4.41546e-07)
(0.00132623 6.91677e-07 2.99401e-07)
(0.00132415 5.72678e-07 7.44753e-07)
(0.00132117 4.81878e-07 3.38662e-07)
(0.0013188 2.14887e-07 2.7976e-07)
(0.00131596 1.01317e-07 3.96439e-07)