/*--------------------------------*- C++ -*----------------------------------*\
| =========                 |                                                 |
| \\      /  F ield         | OpenFOAM: The Open Source CFD Toolbox           |
|  \\    /   O peration     | Version:  5.0                                   |
|   \\  /    A nd           | Web:      www.OpenFOAM.org                      |
|    \\/     M anipulation  |                                                 |
\*---------------------------------------------------------------------------*/
FoamFile
{
    version     2.0;
    format      ascii;
    class       surfaceVectorField;
    location    "3.5";
    object      Uf;
}
// * * * * * * * * * * * * * * * * * * * * * * * * * * * * * * * * * * * * * //

dimensions      [0 1 -1 0 0 0 0];

internalField   nonuniform List<vector> 
27091
(
(0.00235015 0.00518512 -0.00022397)
(-0.00272557 0.000497326 -0.00033417)
(-0.00506594 -0.00104208 -5.91208e-05)
(-5.93497e-05 0.00177495 0.000270062)
(0.00108407 0.00623912 0.000312381)
(0.000620078 -0.00640752 0.000337588)
(0.00690047 0.01084 0.000182346)
(-0.00509115 0.00236225 0.00155082)
(-0.00145193 -0.00148389 0.00144774)
(0.0209892 0.010641 -0.00327092)
(-0.0148773 0.00624616 -0.0354329)
(-0.0232055 -0.00271896 0.0286714)
(0.0227082 -0.0077018 0.00919363)
(-0.000190709 0.00263852 0.000876855)
(-0.0155827 -0.00472052 -0.000426485)
(0.0014585 0.00116635 0.000975206)
(-0.0059514 -0.00507163 -0.00180642)
(-0.0155974 0.00179652 0.000351395)
(0.00311883 0.00183749 -0.000367279)
(-0.00654928 0.00164972 -0.00240906)
(-0.00423189 0.00725543 1.30806e-05)
(-0.0130841 0.000445868 0.0019167)
(-0.00340665 -0.00824936 0.000711471)
(-0.0138195 0.00424099 0.00187574)
(0.000502046 0.00105861 0.00151684)
(-0.024141 -0.00700646 0.000307811)
(-0.00710967 -0.00395973 -0.000241271)
(-0.0109271 -0.0103396 -0.000876088)
(-0.0230974 -0.0102009 -0.000875717)
(0.000938929 -0.000134214 1.86778e-05)
(0.000465276 -7.01929e-05 3.11235e-05)
(0.000562684 -9.22853e-05 5.48428e-05)
(0.000302312 -5.62616e-05 1.42546e-05)
(0.00085493 -0.000104384 -1.17442e-06)
(0.000625428 -9.30202e-05 -1.47586e-06)
(0.00118826 -0.000182913 -1.61491e-06)
(0.000612249 -0.000121458 -4.71192e-06)
(0.00064513 -0.000129198 -5.17933e-06)
(0.00101966 -0.000201596 -4.83122e-06)
(0.00108038 -0.000223701 -4.29186e-06)
(0.000609028 -0.0001025 -4.45557e-06)
(0.00104936 -0.000144261 -1.02996e-06)
(0.00101416 -0.000163392 -5.3235e-06)
(0.000828482 -5.72143e-05 -6.25393e-08)
(0.00087713 -5.13314e-05 -6.52409e-07)
(0.00111231 -7.86006e-05 1.03576e-07)
(0.000820216 -4.09518e-05 5.29588e-08)
(0.000828419 -4.5349e-05 -2.15336e-07)
(0.00109713 -6.28701e-05 1.82329e-07)
(0.000813493 -2.59134e-05 7.10971e-08)
(0.000825291 -2.80576e-05 1.25409e-07)
(0.00108833 -3.90483e-05 1.84044e-07)
(0.000809701 -1.65944e-05 3.34066e-08)
(0.000816473 -1.84512e-05 5.46185e-08)
(0.00108143 -2.54098e-05 1.85702e-07)
(0.000806758 -1.03344e-05 3.76263e-08)
(0.00081165 -1.17246e-05 3.19723e-08)
(0.00107762 -1.59204e-05 1.72856e-07)
(0.000803988 -6.42703e-06 6.58014e-08)
(0.000807497 -7.57783e-06 6.43682e-08)
(0.00107387 -9.79257e-06 1.80042e-07)
(0.000801769 -4.04795e-06 4.29058e-08)
(0.000804302 -4.73349e-06 5.03571e-08)
(0.00107052 -6.16826e-06 1.84756e-07)
(0.000799771 -2.59958e-06 4.48667e-08)
(0.00080164 -2.31449e-06 3.40228e-08)
(0.00106783 -3.88052e-06 1.72098e-07)
(0.000798011 -1.68997e-06 6.94485e-08)
(0.000799387 -1.86837e-06 5.51048e-08)
(0.00106541 -2.57946e-06 1.80637e-07)
(0.000796105 -1.10408e-06 7.61536e-08)
(0.000797477 -1.24668e-06 8.10814e-08)
(0.00106303 -1.62331e-06 1.82365e-07)
(0.000794479 -7.60762e-07 1.46337e-07)
(0.000795623 -1.06059e-06 8.87063e-08)
(0.00106059 -1.12444e-06 1.85216e-07)
(0.000792682 -5.71269e-07 1.37281e-07)
(0.000793789 -4.72722e-07 1.25477e-07)
(0.00105835 -7.99483e-07 1.75246e-07)
(0.00079145 -3.79217e-07 5.37247e-08)
(0.00079212 -1.44343e-07 3.18964e-08)
(0.00105648 -6.49115e-07 9.02963e-08)
(0.000789569 -3.05496e-07 5.44502e-08)
(0.000790371 -9.50613e-08 6.11039e-08)
(0.00105435 -2.6272e-07 1.76444e-07)
(0.000787923 -2.78512e-07 5.00705e-08)
(0.000788713 -9.237e-08 1.93399e-07)
(0.00105195 -4.23618e-07 1.71357e-07)
(0.000786356 -8.37897e-08 5.65273e-08)
(0.000787342 -3.04478e-07 4.422e-08)
(0.00104988 -2.03543e-07 1.812e-07)
(0.000784873 1.14427e-07 6.45069e-08)
(0.000785751 -4.59487e-07 1.98543e-08)
(0.00104789 7.30814e-08 1.86057e-07)
(0.000783036 2.1659e-07 5.89557e-08)
(0.000783939 -8.03358e-07 1.02298e-07)
(0.00104564 3.39968e-07 1.5869e-07)
(0.000781622 1.72835e-07 5.17552e-08)
(0.000782296 2.06564e-07 4.25822e-08)
(0.00104348 3.21087e-07 1.51054e-07)
(0.000779999 1.86906e-07 1.12869e-07)
(0.000780891 5.39817e-08 4.92059e-08)
(0.0010417 1.66052e-07 1.74143e-07)
(0.000778349 9.84446e-08 1.13715e-07)
(0.000779138 -8.96443e-08 1.2344e-07)
(0.00103932 3.16586e-07 1.23739e-07)
(0.00077697 -2.34797e-07 6.63824e-08)
(0.000777344 -2.02392e-07 4.97799e-08)
(0.00103718 -1.07608e-07 1.93884e-07)
(0.000774913 -4.3943e-07 1.87666e-08)
(0.000775806 -7.50566e-07 -2.65351e-08)
(0.00103507 -6.22264e-07 3.70147e-07)
(0.000773488 -3.86563e-07 1.93023e-08)
(0.000774258 -6.4707e-07 -1.3553e-08)
(0.00103262 -6.38224e-07 3.20918e-07)
(0.000771754 -1.18042e-07 7.89351e-08)
(0.000772886 -9.98317e-08 1.02044e-07)
(0.00103054 -4.23415e-07 1.82797e-07)
(0.000771016 9.62825e-08 6.11122e-08)
(0.000771651 -1.68846e-06 8.20381e-08)
(0.00102909 8.88746e-08 2.23003e-07)
(0.000769322 9.43403e-08 5.32391e-08)
(0.000770094 1.81854e-07 4.66128e-08)
(0.00102749 1.742e-07 1.74629e-07)
(0.00076747 1.20449e-07 4.63211e-08)
(0.000768363 1.22455e-08 4.89755e-08)
(0.00102507 1.38148e-07 1.35893e-07)
(0.000765634 2.24262e-07 3.33844e-08)
(0.000766743 1.68027e-07 3.5683e-08)
(0.00102254 2.46568e-07 1.93425e-07)
(0.000764062 4.15806e-07 6.27795e-08)
(0.000765206 4.97871e-07 2.11756e-08)
(0.00102013 3.848e-07 1.29408e-07)
(0.000763599 3.52673e-07 1.20484e-07)
(0.00076376 -2.24927e-06 6.82447e-08)
(0.00101891 7.53322e-07 2.15562e-07)
(0.000761756 9.04244e-08 8.8134e-08)
(0.000762317 2.53267e-07 2.90399e-07)
(0.00101748 2.71256e-07 1.77087e-07)
(0.000760267 3.30619e-08 5.06218e-08)
(0.000760867 6.68765e-09 5.34787e-08)
(0.00101518 6.29034e-08 1.72946e-07)
(0.00075872 -1.48713e-07 7.75427e-08)
(0.000759225 -6.60483e-08 6.2715e-08)
(0.00101307 7.18293e-08 1.7074e-07)
(0.00075767 -3.74726e-07 4.33027e-08)
(0.000757845 -5.02353e-07 2.44565e-08)
(0.00101159 -4.36581e-07 1.51428e-07)
(0.0007554 -3.39914e-07 2.19147e-08)
(0.000756555 2.23892e-06 4.34735e-08)
(0.00100923 -5.19516e-07 8.50591e-08)
(0.000754133 -2.18269e-07 3.07355e-08)
(0.000755047 -2.8842e-07 4.70301e-08)
(0.00100684 -3.5662e-07 1.68992e-07)
(0.000752643 -8.01934e-08 3.47347e-08)
(0.000753593 1.44449e-07 3.95213e-08)
(0.00100506 -2.54884e-07 1.64238e-07)
(0.000751859 -5.63675e-08 5.36411e-08)
(0.000752273 -7.29729e-07 5.0076e-08)
(0.00100345 -1.57068e-08 1.53197e-07)
(0.000750295 -2.57178e-07 5.29428e-08)
(0.000750965 1.31264e-07 6.5419e-09)
(0.00100208 -1.99338e-07 1.73517e-07)
(0.000748596 -3.6847e-07 2.77199e-08)
(0.000749399 -3.19826e-07 -1.48201e-08)
(0.000999738 -5.16524e-07 2.07959e-07)
(0.000748103 8.81733e-07 5.93493e-08)
(0.000997584 -4.48365e-07 1.07431e-07)
(0.0040971 0.00915422 -0.000248197)
(0.00446799 0.00381641 0.000685814)
(0.00339078 0.00612059 0.00081965)
(0.0103279 0.00591254 -0.000131)
(-0.00977654 0.00343215 0.000738681)
(-0.0167919 -0.00403514 -0.000158619)
(0.004571 -0.0186688 -0.00675437)
(-0.0140874 0.008594 0.00215366)
(-0.00868565 -0.00298741 0.0014328)
(-0.00118192 -0.00487057 0.000592347)
(-0.000927762 -0.0107839 -0.000435608)
(-0.00195855 -0.0159978 -0.000115159)
(0.00142407 -0.0182095 0.00099046)
(0.00200603 -0.00712678 -0.000386305)
(-0.00448033 0.00622264 0.000242819)
(0.0043543 0.00195836 0.000139163)
(0.00393955 0.000294198 0.000716719)
(0.0030459 0.00457705 -0.000303623)
(0.00196616 -0.000168829 -0.00066073)
(0.00203478 -0.00978791 -0.00120677)
(0.00928661 -0.00287119 -0.000756004)
(-0.0060215 0.00118554 -0.000398269)
(0.0114517 -0.000324718 -0.00280865)
(-0.0153757 0.00811753 -0.0006778)
(-0.000572687 0.00540247 -0.000115364)
(-0.00064741 -0.00425476 0.000179607)
(-0.00432746 -0.000350469 0.000110371)
(0.000471401 0.000881604 0.000149344)
(-0.00667306 -0.00723739 0.000614012)
(0.00125733 5.43691e-05 3.79358e-05)
(0.0004579 -0.000153129 4.81724e-05)
(0.000466928 -0.000136416 3.24966e-05)
(0.000559551 -9.16456e-05 6.92189e-05)
(0.000423066 -8.94465e-05 2.2152e-05)
(0.000524342 -7.97936e-05 -9.80326e-07)
(0.000520531 -7.06659e-05 -3.51889e-06)
(0.000514961 -6.65659e-05 -1.57173e-07)
(0.000808547 -0.000103934 -1.44672e-06)
(0.00085173 -4.20178e-05 -8.05349e-07)
(0.000939748 -4.2045e-05 -1.61459e-06)
(0.00121929 -5.68071e-05 -1.10616e-06)
(0.000629034 -6.52966e-05 -4.10843e-06)
(0.000647985 -5.08885e-05 -5.22873e-06)
(0.00103746 -0.000124283 -4.97655e-06)
(0.00106722 -9.29864e-05 -6.70569e-06)
(0.000837405 -3.06925e-05 -1.42998e-07)
(0.000842638 -2.81196e-05 -5.20028e-07)
(0.00110741 -4.7999e-05 7.82762e-08)
(0.000826293 -1.90816e-05 1.08953e-07)
(0.000839877 -1.67709e-05 1.70455e-07)
(0.00110964 -2.89069e-05 2.12407e-07)
(0.000818194 -1.22665e-05 5.31916e-08)
(0.000825037 -1.04694e-05 3.31066e-08)
(0.00109424 -1.87427e-05 1.80953e-07)
(0.000812011 -7.81402e-06 5.87037e-08)
(0.000817244 -6.55187e-06 5.61826e-08)
(0.00108598 -1.18626e-05 2.09962e-07)
(0.000807554 -4.96247e-06 4.89284e-08)
(0.00081108 -4.14867e-06 4.87524e-08)
(0.00107914 -7.63949e-06 1.81797e-07)
(0.000804114 -3.14263e-06 4.14794e-08)
(0.000806589 -2.55511e-06 5.19985e-08)
(0.00107426 -4.7597e-06 1.80472e-07)
(0.000801074 -1.8647e-06 4.42542e-08)
(0.000803244 -9.08264e-07 4.67139e-08)
(0.00107005 -3.08745e-06 2.00032e-07)
(0.000798828 -9.16147e-07 6.67293e-08)
(0.000800577 -1.18019e-06 5.25607e-08)
(0.00106662 -1.55336e-06 1.82004e-07)
(0.000796917 -3.24784e-07 9.36316e-08)
(0.000798218 -9.71534e-07 3.62683e-08)
(0.00106401 -7.1476e-07 1.82073e-07)
(0.000795053 -8.71065e-08 6.78352e-08)
(0.000795921 -7.53632e-07 1.04764e-07)
(0.00106155 -6.97017e-08 1.76317e-07)
(0.000793035 -2.28741e-08 2.01227e-08)
(0.000793869 -3.82619e-08 3.66779e-08)
(0.00105897 -1.0301e-07 1.81048e-07)
(0.000791196 2.58952e-08 3.92664e-08)
(0.00079218 2.30644e-07 3.00686e-08)
(0.00105648 9.42876e-08 1.70017e-07)
(0.000789295 1.31732e-07 2.0001e-07)
(0.000790502 2.13219e-07 5.86317e-08)
(0.00105399 1.09555e-08 1.80337e-07)
(0.000788248 2.7133e-07 1.87596e-07)
(0.000788886 -1.38605e-06 2.10367e-07)
(0.00105196 3.76788e-07 2.17892e-07)
(0.000786726 1.77114e-07 7.55467e-09)
(0.000787223 -1.07836e-06 -3.2667e-08)
(0.00105041 3.91512e-07 2.2328e-07)
(0.000784895 -2.48622e-09 5.76191e-08)
(0.000785525 4.90299e-08 1.19719e-08)
(0.00104821 1.42846e-07 1.6103e-07)
(0.000783043 -4.86802e-08 8.59434e-08)
(0.00078388 -5.22788e-09 9.73309e-08)
(0.00104564 -7.48414e-08 1.42744e-07)
(0.000781631 -9.19438e-08 4.00309e-08)
(0.000782242 -2.13751e-07 4.68977e-08)
(0.00104344 3.48178e-10 1.8979e-07)
(0.000780063 -3.27818e-07 5.9753e-08)
(0.000780597 8.34132e-08 5.26434e-08)
(0.00104154 -2.37014e-07 1.72261e-07)
(0.000778077 -4.61301e-07 5.95273e-08)
(0.000778973 -7.2223e-07 3.60744e-08)
(0.00103923 -7.25529e-07 2.55932e-07)
(0.000776241 -3.88731e-07 -4.31136e-08)
(0.000777437 -3.22722e-07 3.5705e-08)
(0.00103651 -6.22204e-07 2.06872e-07)
(0.000775045 -2.51604e-07 -5.88588e-08)
(0.000775979 1.93918e-07 5.40712e-08)
(0.00103461 -4.73632e-07 7.53886e-08)
(0.000773652 1.00548e-07 6.91525e-08)
(0.000774698 3.7965e-07 3.59316e-08)
(0.00103299 -2.34709e-07 8.72545e-08)
(0.00077277 4.30775e-07 1.05153e-07)
(0.000773297 -2.28952e-06 6.16204e-08)
(0.00103142 5.14199e-07 2.70325e-07)
(0.000770846 2.993e-07 6.75498e-08)
(0.000771484 -2.07331e-06 4.88691e-08)
(0.00102964 6.92495e-07 2.35219e-07)
(0.000769053 6.57399e-08 4.23485e-08)
(0.0007698 6.55377e-07 6.8917e-08)
(0.00102711 1.55722e-07 1.62748e-07)
(0.000767633 5.88304e-08 3.83416e-08)
(0.000768354 -1.38618e-07 4.48726e-08)
(0.00102491 4.20876e-08 1.74391e-07)
(0.000766307 1.95015e-07 2.34788e-08)
(0.000766912 7.17528e-09 4.63425e-08)
(0.00102307 1.14708e-07 1.67148e-07)
(0.000764885 4.43972e-07 2.66263e-08)
(0.000765516 4.17659e-08 2.99653e-08)
(0.00102137 4.10082e-07 1.97284e-07)
(0.000762494 4.18179e-07 2.38091e-07)
(0.000763726 -7.42585e-07 3.53776e-08)
(0.00101877 7.89094e-07 1.4381e-07)
(0.000761394 9.69488e-08 2.55817e-07)
(0.000761914 1.89433e-07 2.32483e-07)
(0.00101634 3.81527e-07 1.41097e-07)
(0.000759978 -2.08939e-07 6.55691e-08)
(0.000760484 -3.02787e-07 6.84231e-08)
(0.00101475 -4.88383e-08 1.87673e-07)
(0.000758112 -3.63292e-07 9.64059e-09)
(0.000759033 7.80038e-07 1.46454e-08)
(0.00101252 -4.4669e-07 1.45377e-07)
(0.000756841 -4.8698e-07 2.46215e-08)
(0.000757692 -3.09453e-07 2.47244e-08)
(0.00101038 -4.74197e-07 1.39314e-07)
(0.000756194 -3.56078e-07 6.85879e-08)
(0.00075672 1.61601e-07 9.36221e-08)
(0.00100929 -8.03845e-07 2.47837e-07)
(0.000754519 -6.30313e-08 5.58183e-08)
(0.000755415 -2.46597e-08 5.56263e-08)
(0.00100765 -1.55399e-07 1.71923e-07)
(0.000753105 1.67218e-07 5.48595e-08)
(0.000753881 6.52465e-08 8.79619e-08)
(0.00100558 -6.69799e-08 1.73755e-07)
(0.00075151 2.11653e-07 2.99016e-09)
(0.000752328 -1.23933e-06 1.03154e-07)
(0.00100364 4.51203e-07 2.22207e-07)
(0.000750023 -1.28223e-08 -6.12145e-08)
(0.000750684 2.7424e-07 1.59954e-08)
(0.00100153 7.16795e-08 1.65485e-07)
(0.000748818 -1.34122e-07 1.67868e-08)
(0.00074925 1.09013e-07 -8.95573e-09)
(0.000999668 -1.56393e-07 1.19375e-07)
(0.000748269 -1.27313e-07 1.10538e-07)
(0.000998314 -2.44406e-07 2.27566e-07)
(0.00291802 -0.00313317 0.000491095)
(0.013465 -0.0153877 -0.000282835)
(0.00437643 -0.0165006 -0.000382307)
(0.00867699 -0.0118193 -0.000210805)
(0.0263671 0.00417123 0.00411963)
(0.00510068 0.0063473 -0.00176192)
(0.0266154 0.00232739 -0.0096498)
(-0.00518061 0.0010255 -0.00110859)
(0.0312525 0.00920141 -0.0597805)
(0.0392921 0.00809403 0.0359809)
(0.0470824 0.019102 -0.0106126)
(-0.00865015 0.0266986 0.0172944)
(0.00219572 0.00527485 -0.00383955)
(-0.0140087 0.033733 -0.00132035)
(-0.0698043 0.0668341 -9.26985e-05)
(-0.0116906 -0.017023 0.00607679)
(-0.0362854 0.00256535 0.0014431)
(-0.0681819 -0.0360904 3.44511e-05)
(-0.0497955 -0.00559059 0.00861165)
(-0.0652235 -0.0554846 0.00163958)
(0.0223643 -0.0106979 -0.000418968)
(0.0248075 -0.00495966 -0.002918)
(0.0527137 -0.0177562 -0.00274991)
(0.0332746 -0.0039066 0.00119184)
(0.0262058 -0.00725244 0.00110689)
(0.0186457 -0.00397738 0.00122762)
(0.0245465 -0.0110129 0.00107248)
(0.0507691 -0.0225583 -0.0262236)
(0.0353596 -0.0192214 0.00166934)
(0.0295724 -0.019622 0.00786208)
(0.034115 -0.0109247 0.0242241)
(-0.0273145 -0.0370731 0.0019183)
(-0.00199293 -0.0314636 0.00172208)
(-0.0499993 -0.0359181 -0.000174853)
(-0.025476 -0.0397048 0.000380353)
(-0.0304199 -0.0411166 0.00420888)
(0.000968398 -0.000753537 -0.000388674)
(0.000525472 0.00210252 6.63391e-05)
(0.00396394 -0.00469308 -0.000402735)
(0.0036248 -0.000234594 -0.000347471)
(0.00749792 -0.000961165 -0.000324221)
(0.00159125 0.000154059 7.38005e-05)
(0.00201624 0.000396182 8.42128e-05)
(0.00205213 0.000315897 0.000137726)
(0.00209751 0.000920731 2.02505e-05)
(0.00141602 0.000158968 8.51741e-05)
(0.000387126 -3.42906e-05 -2.34984e-06)
(0.000560708 -4.18846e-05 -3.31901e-06)
(0.000563636 -4.47758e-05 3.74905e-07)
(0.000901245 -8.30146e-05 -9.06303e-07)
(0.000404717 -3.99855e-05 -1.15247e-06)
(0.000701937 -6.18409e-05 9.04917e-07)
(0.000750959 -7.62235e-05 4.13634e-06)
(0.000543892 -5.91777e-05 -1.40758e-07)
(0.00087905 -1.94837e-05 -1.32962e-06)
(0.000951661 9.93768e-07 -2.07097e-06)
(0.00127501 -3.30579e-05 -1.24288e-06)
(0.000673425 -3.03213e-05 -4.20376e-06)
(0.000681795 -5.75094e-06 -5.58151e-06)
(0.00110969 -5.68405e-05 -5.2308e-06)
(0.00112754 -3.32756e-06 -7.09929e-06)
(0.00085314 -1.03875e-05 -2.068e-07)
(0.000854039 4.05033e-06 -4.80328e-07)
(0.00113212 -1.67419e-05 4.66181e-08)
(0.000835249 -5.97203e-06 9.46533e-08)
(0.000845418 3.03014e-06 1.44116e-07)
(0.00112508 -9.5955e-06 2.09732e-07)
(0.000823612 -3.52978e-06 3.60902e-08)
(0.000828101 2.14205e-06 2.5424e-08)
(0.00110284 -5.47133e-06 1.66683e-07)
(0.000815632 -2.17304e-06 4.62337e-08)
(0.000818947 1.60862e-06 4.76927e-08)
(0.00109156 -3.40093e-06 1.59269e-07)
(0.000809747 -1.324e-06 5.18215e-08)
(0.000812145 1.05693e-06 4.95877e-08)
(0.00108279 -2.05428e-06 1.82146e-07)
(0.000805372 -8.30926e-07 5.72348e-08)
(0.000807208 7.28661e-07 5.11567e-08)
(0.00107623 -1.26459e-06 1.84643e-07)
(0.000802662 -5.0471e-07 5.50186e-08)
(0.000803653 3.36106e-07 5.4868e-08)
(0.00107186 -8.22794e-07 1.82924e-07)
(0.000799875 -2.67852e-07 2.2105e-08)
(0.000800874 2.18309e-07 5.09243e-08)
(0.00106839 -4.46224e-07 1.79958e-07)
(0.000797239 -1.92713e-07 4.73783e-08)
(0.000798312 4.76996e-07 2.42624e-08)
(0.00106489 -2.25178e-07 1.6376e-07)
(0.000794572 -1.37841e-07 7.36281e-08)
(0.00079599 6.28986e-07 6.24202e-08)
(0.00106136 -2.84711e-07 1.71198e-07)
(0.000792977 -4.72734e-09 4.66259e-08)
(0.000794036 -1.07886e-07 3.69804e-08)
(0.00105855 -9.47918e-08 1.79346e-07)
(0.000791494 1.0595e-07 4.94248e-08)
(0.000792319 -1.66224e-07 5.78689e-08)
(0.00105662 7.33468e-08 1.92652e-07)
(0.000790026 2.84532e-07 6.894e-08)
(0.000790725 -4.33556e-08 5.0524e-08)
(0.0010547 1.91663e-07 1.81982e-07)
(0.000787974 3.50064e-07 -9.81831e-09)
(0.000788967 -3.05995e-07 6.37238e-08)
(0.00105242 5.31925e-07 1.40081e-07)
(0.000785911 1.95377e-07 -2.82639e-08)
(0.000787028 1.64499e-07 -2.1675e-08)
(0.00104958 3.88357e-07 1.29628e-07)
(0.000784536 8.49851e-08 5.16566e-08)
(0.000785386 -1.50877e-07 1.01838e-07)
(0.00104731 1.29605e-07 1.7068e-07)
(0.000783058 4.36342e-08 5.83012e-08)
(0.000783829 -1.10158e-07 4.56237e-08)
(0.00104546 8.10826e-08 1.73284e-07)
(0.000781235 -1.86403e-09 5.95084e-08)
(0.000782184 7.62544e-09 6.09156e-08)
(0.00104328 3.39297e-08 1.8079e-07)
(0.000779534 -8.1764e-08 2.897e-08)
(0.000780498 2.00833e-08 5.90432e-08)
(0.00104079 -2.05755e-08 1.90349e-07)
(0.000778237 1.99756e-08 1.22522e-08)
(0.0007791 5.25334e-07 2.04131e-08)
(0.00103884 -1.58981e-07 6.27537e-08)
(0.000777233 3.01155e-07 1.32884e-07)
(0.000777787 6.26125e-07 3.19395e-08)
(0.00103751 2.70248e-07 5.80729e-08)
(0.000775529 4.55108e-07 1.48867e-07)
(0.000776169 3.75775e-07 1.33609e-07)
(0.00103556 6.27919e-07 1.74352e-07)
(0.000774425 4.5317e-07 2.83914e-08)
(0.000774693 5.39883e-07 3.89645e-08)
(0.00103386 6.77371e-07 1.22996e-07)
(0.000772098 2.82654e-07 5.34004e-09)
(0.000773082 2.7122e-08 3.45764e-08)
(0.0010317 5.65428e-07 7.87161e-08)
(0.000770303 6.73424e-08 5.023e-08)
(0.000771214 5.99989e-08 2.95508e-08)
(0.00102864 2.17194e-07 4.45532e-08)
(0.00076911 2.42542e-08 7.14487e-08)
(0.000769746 3.65372e-07 8.24838e-08)
(0.00102668 -3.09821e-09 1.63679e-07)
(0.000767612 3.41197e-08 5.28731e-08)
(0.000768366 -1.20804e-07 4.21029e-08)
(0.00102501 6.14248e-08 1.69301e-07)
(0.000766132 -2.85045e-08 5.28341e-08)
(0.000766834 2.97407e-08 4.50202e-08)
(0.001023 2.30986e-08 1.67799e-07)
(0.000764566 -1.35371e-07 3.8715e-08)
(0.000765382 -3.78252e-08 4.50748e-08)
(0.00102097 -7.34526e-08 1.83211e-07)
(0.000762873 -8.44229e-08 2.97084e-08)
(0.00076379 -2.12813e-07 2.40495e-08)
(0.00101886 -2.48273e-07 1.51286e-07)
(0.000761079 1.39367e-08 4.51397e-08)
(0.000762037 8.35037e-07 -1.35493e-08)
(0.00101643 1.44541e-08 1.52501e-07)
(0.000759535 -4.81583e-08 1.7516e-08)
(0.000760407 4.86224e-08 4.86148e-08)
(0.00101414 -2.75055e-09 1.51566e-07)
(0.000758578 5.90729e-08 2.97261e-08)
(0.000759167 1.05267e-08 8.49453e-08)
(0.00101254 -7.797e-08 1.79958e-07)
(0.000757388 3.14625e-07 9.37038e-08)
(0.00075801 -1.55357e-06 1.21967e-07)
(0.00101115 3.28914e-07 2.35958e-07)
(0.00075627 3.39246e-07 8.06722e-08)
(0.000756749 4.80533e-07 5.49996e-08)
(0.00100963 5.82779e-07 1.16885e-07)
(0.000754632 2.6314e-07 8.77601e-08)
(0.000755317 -3.48048e-08 4.18091e-08)
(0.00100777 4.01572e-07 1.88471e-07)
(0.000753201 2.80071e-07 1.36251e-07)
(0.0007539 -1.70678e-08 8.08723e-08)
(0.00100582 3.96536e-07 1.75561e-07)
(0.000751392 3.51223e-07 1.16185e-07)
(0.000752416 -4.82466e-08 1.13947e-07)
(0.00100362 4.10326e-07 1.17766e-07)
(0.000749947 3.28105e-07 6.82618e-08)
(0.000750654 3.74213e-07 6.03517e-08)
(0.00100132 5.38538e-07 1.64706e-07)
(0.00074848 1.93931e-07 8.47592e-08)
(0.00074908 1.74894e-07 5.05458e-08)
(0.00099935 3.1541e-07 1.69944e-07)
(0.000748027 -1.14727e-06 1.36145e-07)
(0.000998081 1.8233e-07 2.0282e-07)
(0.0021693 0.0177713 -8.88967e-05)
(-0.0154135 -0.00297033 0.00106727)
(-0.00854484 -0.00538961 0.0011436)
(-0.00564854 0.00884268 0.00286795)
(-0.00784741 0.00203486 -0.000643689)
(0.00270086 0.000963162 -0.000515158)
(0.00689009 0.00268799 0.00103997)
(-0.00799606 0.00531669 8.3688e-05)
(0.00111416 -0.00469058 -9.95265e-05)
(-0.0122022 -0.0222271 -0.000666464)
(-0.00342883 -0.0176465 -2.34442e-05)
(-0.00994775 -0.0432221 -0.000104669)
(-0.00403243 -0.0157057 -0.000953858)
(-0.00160357 -0.0262994 -0.00125957)
(-0.00596522 0.00495745 -0.000197474)
(0.00824875 0.00128976 -0.0021364)
(-0.00576744 0.00453259 0.000554541)
(0.00767189 -0.0096027 0.000335353)
(0.0144642 -0.0125843 0.00137294)
(-0.000472829 0.0135987 -0.000234293)
(0.0129364 0.00784827 0.000775389)
(0.000993479 0.00804603 0.000269625)
(0.00118217 0.0134408 -0.000273709)
(-0.00773463 0.0147645 -0.00027401)
(0.000773291 0.00977043 -0.000233166)
(-0.010293 0.01349 0.000254291)
(-0.0110355 0.0132245 -0.000162225)
(-0.00364507 0.00428399 -0.000103795)
(-0.0220451 0.0281736 -2.20387e-05)
(-0.00592305 0.0248264 -0.00150092)
(-0.00814734 -0.0107116 -0.000378152)
(-0.00444429 -0.000388521 -0.000613306)
(0.00430501 -0.00135291 -0.000552726)
(0.00842279 0.00910614 -0.00112115)
(0.00747181 0.000112442 -0.00207076)
(0.000660919 0.000960908 -4.70344e-06)
(0.00075316 0.000887532 2.86657e-06)
(0.000303619 0.00080218 -6.54668e-06)
(0.000790375 0.00128143 -1.20849e-05)
(0.000872724 0.00056024 4.74818e-05)
(0.000397418 -7.40601e-05 2.3046e-05)
(0.00042778 -2.23419e-05 2.47815e-06)
(0.000380884 -1.5211e-05 4.34345e-06)
(0.000607856 -2.70746e-05 7.93174e-06)
(0.00029798 -1.5415e-05 -6.68046e-07)
(0.000879062 2.60057e-05 -1.2222e-06)
(0.000935416 5.86723e-05 -1.57839e-06)
(0.00124988 3.92883e-05 -1.53504e-06)
(0.000679421 2.16821e-05 -4.39597e-06)
(0.000673308 2.64969e-05 -5.37829e-06)
(0.00114647 3.28981e-05 -5.10983e-06)
(0.0011266 4.38136e-05 -6.40546e-06)
(0.000852914 1.73568e-05 -1.29616e-07)
(0.000843119 3.59439e-05 -5.01453e-07)
(0.00113679 2.63788e-05 8.83865e-08)
(0.000834639 1.14074e-05 7.49254e-08)
(0.000837931 2.34029e-05 1.55445e-07)
(0.00112378 1.7247e-05 2.04056e-07)
(0.000822627 7.37106e-06 3.70193e-08)
(0.000823024 1.48715e-05 1.82569e-07)
(0.00110201 1.13756e-05 1.90757e-07)
(0.000814728 4.64625e-06 5.1046e-08)
(0.00081552 9.29796e-06 1.02894e-07)
(0.00109027 7.09164e-06 1.84334e-07)
(0.000809163 3.00261e-06 4.89224e-08)
(0.000810078 5.86123e-06 5.12077e-08)
(0.00108182 4.51727e-06 1.8218e-07)
(0.000805093 2.00172e-06 4.87887e-08)
(0.000805948 3.7249e-06 2.18369e-08)
(0.0010758 2.99933e-06 1.78279e-07)
(0.000801766 1.19153e-06 5.0775e-08)
(0.000802635 2.35692e-06 3.82512e-08)
(0.00107108 2.03358e-06 1.82599e-07)
(0.000799251 5.19364e-07 5.30903e-08)
(0.000800031 1.24258e-06 5.09092e-08)
(0.00106737 9.53795e-07 1.82171e-07)
(0.00079699 1.23494e-07 3.92921e-08)
(0.000797816 1.04683e-06 5.48577e-08)
(0.00106422 3.3587e-07 1.91915e-07)
(0.000795314 4.15499e-08 2.57806e-08)
(0.000795887 7.70512e-07 1.14794e-07)
(0.00106171 -4.9772e-08 1.71375e-07)
(0.000793354 9.128e-08 4.82166e-08)
(0.000794098 2.82886e-07 6.25698e-08)
(0.00105942 1.04421e-07 1.79052e-07)
(0.000791496 2.68399e-08 5.89704e-08)
(0.000792238 1.58651e-07 6.73655e-08)
(0.00105684 7.19839e-08 1.75065e-07)
(0.000789798 -1.06828e-07 4.53036e-08)
(0.000790558 9.47822e-08 4.55762e-08)
(0.00105456 -5.28768e-08 1.74578e-07)
(0.000787935 -1.6763e-07 5.18943e-08)
(0.000788891 -7.10724e-08 3.19011e-08)
(0.0010522 -2.74621e-07 1.82432e-07)
(0.000786453 -3.3993e-08 1.08387e-07)
(0.000787196 1.34949e-07 8.13513e-08)
(0.0010499 -1.99256e-07 1.67754e-07)
(0.000784669 1.63743e-07 9.58225e-08)
(0.000785634 5.50228e-08 1.11286e-07)
(0.00104782 7.94161e-08 1.78105e-07)
(0.000782987 2.67456e-07 4.82332e-08)
(0.000783958 2.6427e-08 5.92617e-08)
(0.00104552 3.08072e-07 1.74222e-07)
(0.000781446 3.74435e-07 6.0451e-08)
(0.000782317 3.08735e-08 6.39751e-08)
(0.00104331 3.78717e-07 1.69949e-07)
(0.000779979 6.1093e-07 5.04986e-08)
(0.00078079 5.76815e-07 4.6421e-08)
(0.0010413 6.38857e-07 1.2623e-07)
(0.000778679 6.46928e-07 4.00968e-08)
(0.000779141 8.17485e-07 1.3768e-07)
(0.00103959 1.08156e-06 1.30443e-07)
(0.000776779 4.69067e-07 3.2633e-08)
(0.000777561 1.21656e-07 4.05678e-08)
(0.00103749 7.84682e-07 2.39716e-07)
(0.000775244 4.6373e-07 2.37363e-08)
(0.000776159 3.82923e-07 4.05773e-08)
(0.00103512 6.11334e-07 1.71722e-07)
(0.000773536 2.72089e-07 4.51509e-08)
(0.000774451 -8.67752e-07 2.876e-08)
(0.0010329 7.71973e-07 2.87562e-07)
(0.000772059 -3.4259e-09 5.87887e-08)
(0.000772736 -5.34113e-08 7.39866e-08)
(0.00103084 7.55369e-08 1.73413e-07)
(0.000770566 6.10622e-08 6.17879e-08)
(0.000771294 1.70421e-08 5.00959e-08)
(0.00102893 -2.77487e-08 1.72488e-07)
(0.000769134 1.06484e-07 5.31506e-08)
(0.000769803 -9.12915e-08 5.85457e-08)
(0.00102692 1.94936e-07 1.96886e-07)
(0.000767497 3.99195e-08 3.42491e-08)
(0.000768282 1.06739e-08 4.05666e-08)
(0.00102494 8.88626e-08 1.73576e-07)
(0.0007661 -2.92368e-08 3.72608e-08)
(0.000766748 -7.74952e-08 3.24407e-08)
(0.0010229 1.58227e-08 1.69696e-07)
(0.000764659 -1.59694e-07 3.04158e-08)
(0.00076522 -1.74115e-07 5.87718e-08)
(0.00102104 -9.5043e-08 1.76094e-07)
(0.000762976 -2.80854e-07 -1.91966e-08)
(0.00076364 -3.47877e-07 3.03958e-08)
(0.00101888 -3.55165e-07 1.98119e-07)
(0.000761324 -1.51627e-07 -1.00934e-08)
(0.000762199 1.05034e-06 1.37177e-08)
(0.00101665 -4.38229e-07 1.70615e-07)
(0.000759861 1.11614e-07 1.16033e-07)
(0.000760736 2.02359e-08 4.61886e-08)
(0.00101464 1.09019e-08 1.71657e-07)
(0.000758702 3.85691e-07 1.77175e-07)
(0.000759508 -3.76868e-09 1.59691e-07)
(0.00101293 2.91365e-07 1.43718e-07)
(0.000757358 4.63764e-07 8.32835e-08)
(0.000758106 7.16651e-07 9.91795e-08)
(0.00101121 7.46015e-07 -4.29022e-09)
(0.000755854 2.07463e-07 1.61406e-08)
(0.000756427 -8.22715e-07 -3.91955e-08)
(0.00100937 5.06626e-07 2.69487e-07)
(0.000754534 4.9632e-08 3.49093e-08)
(0.000755119 1.5284e-07 4.03914e-08)
(0.00100741 8.04407e-08 1.4511e-07)
(0.00075319 4.39145e-08 5.85578e-08)
(0.000753893 3.37795e-08 4.49728e-08)
(0.00100559 7.2792e-08 1.57925e-07)
(0.000751708 1.62174e-07 5.81296e-08)
(0.000752563 9.44398e-07 4.29293e-08)
(0.00100382 2.55917e-08 1.02557e-07)
(0.000749713 2.23301e-07 4.26387e-08)
(0.00075073 1.15903e-06 1.31443e-08)
(0.0010014 3.50776e-07 1.64917e-07)
(0.000748467 2.0718e-07 1.01906e-07)
(0.000749057 1.30497e-08 5.22231e-08)
(0.000999216 2.17389e-07 1.66306e-07)
(0.00074777 -1.31837e-06 1.05501e-07)
(0.000997693 3.40153e-07 1.89038e-07)
(-0.00573139 -0.00128405 0.00301856)
(0.0133713 -0.0037689 -0.000625886)
(-0.00112359 -0.0080297 -0.00257241)
(-0.0018474 -0.00719369 -0.000235909)
(0.0105708 -0.000526706 -0.0032578)
(-0.00238544 0.00836553 -0.0015829)
(-0.0123731 0.00623313 0.00103348)
(0.00897454 -0.00699357 0.000156025)
(0.000927622 0.00560496 0.0055854)
(-0.00193046 0.00284371 0.00441662)
(0.00226763 -0.0117068 0.000610403)
(0.00654494 0.00369737 -0.00170078)
(-0.00678893 0.00219634 0.000737831)
(-0.00112827 0.00487648 -0.00172867)
(-0.00402896 -0.00056389 -0.000358337)
(-0.000521493 0.0024586 -3.28069e-05)
(0.00323475 0.00372585 0.000859425)
(-0.00685964 -0.00548785 0.00190935)
(0.00528794 0.000670464 -0.000111654)
(-0.00253902 0.00403461 0.00211544)
(0.0134344 0.00047259 -0.00143433)
(0.00925139 0.0139406 -0.00179494)
(0.00474303 0.00384317 -0.00157223)
(0.0110273 0.0088153 -0.00294054)
(-0.000384045 0.00678268 -0.00407325)
(0.0128597 0.0240767 0.0170739)
(0.00323472 0.00567286 0.0066684)
(0.0152097 0.0177939 -0.0231828)
(0.0026961 0.00133657 0.000304097)
(0.00865912 -0.00538395 0.000451166)
(0.00803255 -0.0106028 0.00101983)
(0.0154645 -0.00759148 0.000538582)
(0.0076642 -0.00614082 0.000282107)
(0.00882762 -0.00376846 0.000601655)
(0.0147848 -0.00793977 0.000515161)
(0.00236359 0.00120932 0.000487964)
(0.00670805 0.0058441 -0.000781821)
(-7.79083e-05 -0.00299858 9.70099e-05)
(0.00765438 0.00165611 -0.000514687)
(0.00447054 -0.00424135 -0.000296596)
(0.0100179 0.00242547 -0.0202437)
(0.0123849 -0.000473489 0.0227712)
(0.017002 -0.0110459 -0.0194747)
(0.0155777 0.00227694 0.0117448)
(-0.00390347 -0.00101501 0.000169595)
(0.00471843 -0.00291705 0.000117873)
(3.50237e-05 -0.000576751 6.43073e-05)
(0.00103491 9.87421e-05 0.000201)
(-1.32164e-05 -0.000859979 0.000319084)
(0.000979535 -1.67923e-05 -1.86759e-05)
(0.000324639 0.000720501 -8.25992e-05)
(0.000831087 0.000213603 8.16109e-06)
(0.000302612 6.28251e-05 -8.57858e-06)
(-0.00018095 0.000170177 2.3124e-05)
(0.000586223 2.32915e-05 -4.65202e-05)
(-0.000306789 -0.000142651 7.35785e-05)
(0.000717023 0.0012005 6.13019e-05)
(0.00085023 0.000550789 -1.45202e-05)
(0.00113547 0.000464045 -3.6636e-05)
(0.000733268 0.00030455 -3.21062e-05)
(0.000742401 0.000503444 8.6643e-05)
(0.000979259 0.000723972 -3.15819e-05)
(0.000694796 0.000323472 7.87073e-05)
(0.00111446 2.40542e-05 2.00834e-05)
(0.000503243 -2.66252e-07 3.09534e-05)
(0.000519867 2.49046e-06 3.64542e-05)
(0.000692183 1.48905e-05 6.54691e-05)
(0.000337472 7.71191e-06 1.61706e-05)
(0.00085295 6.4177e-05 -8.58001e-07)
(0.000897343 9.12639e-05 -1.06383e-06)
(0.0012336 0.000100627 -1.21216e-06)
(0.000655796 5.47122e-05 -4.66101e-06)
(0.000648096 6.62971e-05 -5.27371e-06)
(0.00108436 8.46967e-05 -5.14799e-06)
(0.00106785 0.0001088 -5.28426e-06)
(0.000834785 3.96029e-05 -2.16607e-07)
(0.000812154 5.83566e-05 -5.82325e-07)
(0.00110428 6.06942e-05 5.4907e-08)
(0.000823 2.4839e-05 2.6308e-07)
(0.000819375 3.55859e-05 1.90523e-07)
(0.00110619 3.84376e-05 2.09905e-07)
(0.00081519 1.54844e-05 2.4847e-07)
(0.000811267 2.2586e-05 2.28267e-07)
(0.00109007 2.36301e-05 1.74688e-07)