/*--------------------------------*- C++ -*----------------------------------*\
| =========                 |                                                 |
| \\      /  F ield         | OpenFOAM: The Open Source CFD Toolbox           |
|  \\    /   O peration     | Version:  5.0                                   |
|   \\  /    A nd           | Web:      www.OpenFOAM.org                      |
|    \\/     M anipulation  |                                                 |
\*---------------------------------------------------------------------------*/
FoamFile
{
    version     2.0;
    format      ascii;
    class       surfaceVectorField;
    location    "3.5";
    object      Uf_0;
}
// * * * * * * * * * * * * * * * * * * * * * * * * * * * * * * * * * * * * * //

dimensions      [0 1 -1 0 0 0 0];

internalField   nonuniform List<vector> 
27091
(
(0.00326082 0.00601747 -0.000187483)
(-0.00247667 -0.000243114 -0.000386267)
(-0.00578592 -0.00126465 -1.2129e-05)
(0.000897228 0.000314552 0.000326867)
(0.000993962 0.00621576 0.000298485)
(0.00108276 -0.0067879 0.000456296)
(0.00851328 0.0117409 0.000253053)
(-0.00470671 0.00456223 0.00175191)
(-0.00403289 -0.00281763 0.00169473)
(0.0228999 0.0127141 -0.0115568)
(-0.0207263 0.00986081 -0.012862)
(-0.0276864 -0.00235649 0.0433403)
(0.0279967 -0.0124693 -0.0236559)
(0.00441522 -0.00060775 0.000938604)
(-0.0115706 -0.00606253 -4.86442e-05)
(0.00516357 -0.000418176 0.00115356)
(-0.00181913 -0.00757057 -0.000548488)
(-0.015082 0.00172851 0.000441718)
(0.00203319 0.00128634 -0.000349233)
(-0.00529278 0.000814277 -0.00206499)
(-0.00466499 0.00512595 7.61839e-05)
(-0.0129442 0.00109081 0.0019565)
(-0.00356154 -0.00733792 0.00073319)
(-0.0128247 0.00507496 0.00187873)
(0.000404912 0.00148212 0.00174565)
(-0.0262164 -0.00604346 0.000364781)
(-0.00830961 -0.00305785 -0.000280962)
(-0.0130053 -0.0092255 -0.000905434)
(-0.0253431 -0.00911309 -0.000965728)
(0.000914596 -3.79034e-05 1.84012e-05)
(0.00043274 -8.01669e-06 3.15391e-05)
(0.000514027 1.60143e-05 5.6042e-05)
(0.000266662 4.00573e-06 1.46556e-05)
(0.0008131 -1.8344e-05 -1.05261e-06)
(0.000562486 -3.22892e-05 -1.22533e-06)
(0.00111266 -5.73291e-05 -1.27029e-06)
(0.000553717 -2.93537e-05 -4.0727e-06)
(0.000572799 -5.17997e-05 -4.75818e-06)
(0.000931158 -5.82432e-05 -4.18794e-06)
(0.000967748 -0.000108654 -3.77197e-06)
(0.000556564 -4.82967e-05 -3.96576e-06)
(0.000948781 -5.76555e-05 -6.02743e-07)
(0.000933472 -8.59642e-05 -4.67625e-06)
(0.000806605 -2.0514e-06 -5.33288e-08)
(0.000833849 2.19709e-06 -6.09281e-07)
(0.00107612 1.54765e-06 1.32059e-07)
(0.000809121 -5.33867e-06 8.16302e-08)
(0.000803083 -9.17961e-06 -2.10462e-07)
(0.00107834 -1.07017e-05 1.85016e-07)
(0.000808273 -3.28054e-06 8.00987e-08)
(0.000810765 -4.34572e-06 1.45549e-07)
(0.00107902 -5.70928e-06 1.76237e-07)
(0.00080796 -2.36284e-06 2.59249e-08)
(0.000808671 -3.11674e-06 4.38209e-08)
(0.00107745 -4.38689e-06 1.72892e-07)
(0.000807269 -1.34996e-06 3.85339e-08)
(0.000808141 -1.87794e-06 4.27087e-08)
(0.00107698 -2.75944e-06 1.83327e-07)
(0.000805405 -7.10311e-07 6.18062e-08)
(0.000806609 -1.46224e-06 6.08904e-08)
(0.00107502 -1.36388e-06 1.67909e-07)
(0.000803874 -4.24255e-07 1.16815e-07)
(0.000804985 -7.98545e-07 4.68073e-08)
(0.00107252 -8.59009e-07 1.81834e-07)
(0.000802764 -3.1469e-07 1.19656e-07)
(0.00080344 -8.44096e-07 1.29135e-07)
(0.00107077 -4.9638e-07 1.87616e-07)
(0.000801365 -2.56528e-07 6.50267e-08)
(0.000801973 -2.36424e-07 5.27203e-08)
(0.00106909 -4.89965e-07 1.77488e-07)
(0.000799616 -1.91576e-07 6.84743e-08)
(0.000800574 -2.46366e-07 7.65589e-08)
(0.00106704 -2.8888e-07 1.74675e-07)
(0.00079791 -2.78297e-07 8.1884e-08)
(0.000798967 -4.11577e-07 5.36886e-08)
(0.00106457 -2.94982e-07 1.74834e-07)
(0.000797049 -3.16863e-07 9.05764e-08)
(0.000797568 1.29996e-07 6.44881e-08)
(0.00106286 -4.8224e-07 2.65386e-07)
(0.000795534 -2.10424e-07 4.73245e-08)
(0.000796249 -7.43461e-08 8.44774e-08)
(0.00106141 -3.53894e-07 2.47971e-07)
(0.000794023 -1.45836e-07 3.26659e-08)
(0.00079469 9.68059e-08 3.95731e-08)
(0.00105929 -1.4959e-07 1.65848e-07)
(0.000792317 -1.02569e-07 4.59624e-08)
(0.000793129 1.61461e-07 4.2206e-08)
(0.00105712 -1.62039e-07 1.72143e-07)
(0.000790852 2.13194e-08 4.66185e-08)
(0.000791739 -1.80313e-07 4.58799e-08)
(0.00105506 -5.41688e-08 1.79255e-07)
(0.00078944 1.73153e-07 5.20457e-08)
(0.000790309 2.86272e-07 5.58498e-08)
(0.00105317 1.87104e-07 1.63242e-07)
(0.00078803 2.2612e-07 5.89573e-08)
(0.00078874 4.43368e-07 6.31948e-08)
(0.00105123 3.84468e-07 1.52888e-07)
(0.000786761 1.43653e-07 5.48961e-08)
(0.000787215 -7.45413e-07 4.9713e-08)
(0.00104941 3.16044e-07 1.99906e-07)
(0.000785444 1.29443e-07 5.06944e-08)
(0.000785884 -1.4503e-07 4.7701e-08)
(0.00104792 1.13741e-07 1.74464e-07)
(0.000782791 6.82259e-08 1.15348e-07)
(0.000784117 1.24865e-06 6.25919e-08)
(0.00104513 2.37471e-07 2.45075e-07)
(0.000781407 -3.3977e-07 6.01094e-08)
(0.000782013 7.81968e-08 2.96109e-08)
(0.00104234 -1.14947e-07 1.51147e-07)
(0.000780045 -5.88953e-07 -2.43248e-08)
(0.000780623 1.84323e-06 3.61754e-08)
(0.00104071 -8.66011e-07 -2.2342e-08)
(0.000778353 -4.91521e-07 4.23307e-08)
(0.000779333 8.61546e-07 2.76345e-08)
(0.00103851 -7.32809e-07 9.43112e-08)
(0.000777263 -3.19339e-07 6.47622e-08)
(0.000777954 1.98292e-07 1.46829e-07)
(0.00103666 -5.69002e-07 1.67679e-07)
(0.000776079 -7.72314e-08 5.03036e-08)
(0.000776785 1.15229e-07 1.31639e-07)
(0.00103536 -2.29493e-07 1.09333e-07)
(0.000774582 1.39166e-07 6.2758e-08)
(0.000775331 2.17228e-08 5.05089e-08)
(0.00103356 8.31029e-08 1.76419e-07)
(0.000772831 2.97614e-07 4.48292e-08)
(0.000773667 -7.34317e-08 7.55896e-08)
(0.00103135 3.24232e-07 2.44856e-07)
(0.000770668 3.1503e-07 1.48491e-08)
(0.000771894 7.76029e-08 2.63433e-08)
(0.00102869 4.52579e-07 9.30555e-08)
(0.000769429 3.68112e-07 2.90726e-08)
(0.00077027 1.333e-07 3.50635e-08)
(0.00102632 3.70882e-07 1.64415e-07)
(0.000767896 4.93682e-07 5.20556e-08)
(0.000768824 3.27243e-07 2.95003e-08)
(0.00102462 6.55443e-07 1.84805e-07)
(0.000767008 3.60456e-07 4.6634e-08)
(0.000767393 -9.4318e-07 6.44593e-08)
(0.00102314 6.83662e-07 1.94127e-07)
(0.000765455 2.10857e-07 5.12744e-08)
(0.000765989 2.28074e-07 3.05929e-08)
(0.00102141 2.59749e-07 1.72368e-07)
(0.000764201 3.68366e-08 6.11705e-08)
(0.000764535 9.89855e-08 6.84394e-08)
(0.00101942 2.81283e-07 1.61609e-07)
(0.000762516 -1.83703e-07 1.49285e-07)
(0.000763166 8.09287e-07 5.58538e-08)
(0.00101774 -2.21429e-07 1.30268e-07)
(0.000760967 -1.93488e-07 1.40509e-07)
(0.000761708 -3.9378e-07 1.94554e-07)
(0.00101544 -2.96172e-07 1.86926e-07)
(0.000759396 -1.91615e-07 4.40962e-08)
(0.000760216 3.07908e-08 4.35537e-08)
(0.0010133 -2.4078e-07 1.6799e-07)
(0.0007581 -2.41898e-07 6.68096e-08)
(0.00075878 -7.05405e-09 5.60699e-08)
(0.00101145 -3.07439e-07 1.62227e-07)
(0.000756771 -3.71709e-07 1.21768e-07)
(0.000757416 -1.19823e-07 7.1925e-08)
(0.00100964 -3.37346e-07 1.84357e-07)
(0.000755381 -3.87944e-07 7.15225e-08)
(0.000756101 -3.71789e-07 1.02673e-07)
(0.00100803 -6.02954e-07 1.68176e-07)
(0.000753563 -2.60909e-07 2.27085e-08)
(0.000754457 1.30483e-06 3.12381e-08)
(0.00100575 -4.04004e-07 7.86651e-08)
(0.00075307 -4.86634e-07 4.77638e-08)
(0.00100339 -3.06048e-07 2.58562e-07)
(0.00490072 0.011111 -0.000258343)
(0.00479361 0.00245049 0.00101766)
(-0.000602572 0.00171847 0.00200894)
(0.01147 0.00530215 0.000266118)
(-0.0108821 0.00701316 0.000791287)
(-0.0175257 -0.00494337 -1.66198e-05)
(0.00733797 -0.0273233 -0.00213298)
(-0.0148034 0.00783794 0.00290428)
(-0.0102225 -0.00638786 0.00182252)
(-0.00121094 -0.00429737 0.000651844)
(-0.000530308 -0.0119234 -0.000390921)
(-0.00441026 -0.022137 -0.00102067)
(0.00123286 -0.0190088 0.00133585)
(0.00115997 -0.00685757 -0.000263953)
(-0.00407262 0.00530011 0.000235633)
(0.00369133 0.000874814 7.24677e-05)
(0.00322706 -0.000264116 0.000597667)
(0.00284678 0.00396454 -0.000309871)
(0.000577367 -0.00127766 -0.000738203)
(0.00238936 -0.0127764 -0.00112221)
(0.0105412 -0.00318027 -0.000803822)
(-0.0038378 0.00160003 -0.000445811)
(0.0127164 -0.00124118 -0.0031183)
(-0.0150843 0.00683579 -0.000673198)
(-0.000480177 0.00557483 -0.000103221)
(-0.000560487 -0.003942 0.00019447)
(-0.00423363 -0.000290929 0.000133646)
(0.0006023 0.000500356 0.000214663)
(-0.00630566 -0.00649413 0.000650733)
(0.00117115 0.000136526 3.4596e-05)
(0.000406275 -0.000117482 4.7796e-05)
(0.000406322 -9.82994e-05 3.27809e-05)
(0.00046156 -3.84401e-05 6.73406e-05)
(0.000357168 -6.02668e-05 2.16956e-05)
(0.000451431 -3.39311e-05 -1.04585e-06)
(0.000464394 -3.26881e-05 -3.07875e-06)
(0.000446979 -3.50573e-05 -1.42958e-07)
(0.00071804 -4.56465e-05 -8.87175e-07)
(0.000808427 -9.34649e-06 -7.66545e-07)
(0.000876487 -1.86371e-05 -1.50568e-06)
(0.00115325 -9.47527e-06 -9.42278e-07)
(0.000580622 -2.82113e-05 -3.67097e-06)
(0.000593126 -2.25406e-05 -5.03174e-06)
(0.000962252 -6.49056e-05 -4.38161e-06)
(0.000983747 -5.00541e-05 -6.29859e-06)
(0.000810605 -8.74571e-06 -1.4666e-07)
(0.000803811 -1.2208e-05 -5.52407e-07)
(0.00106627 -1.5806e-05 6.76388e-08)
(0.000810379 -4.68649e-06 1.09304e-07)
(0.000815869 -6.3094e-06 1.68766e-07)
(0.0010845 -7.69752e-06 2.05311e-07)
(0.0008093 -2.94603e-06 6.06051e-08)
(0.000810864 -3.59159e-06 5.91087e-08)
(0.00107961 -4.93434e-06 1.76522e-07)
(0.000807689 -1.90149e-06 6.50593e-08)
(0.000809458 -2.22097e-06 6.15324e-08)
(0.00107816 -3.00634e-06 2.11795e-07)
(0.000806135 -1.23816e-06 4.58961e-08)
(0.000807446 -1.39155e-06 4.58219e-08)
(0.00107571 -2.1281e-06 1.77897e-07)
(0.000804647 -7.06957e-07 5.91007e-08)
(0.000805654 -8.0834e-07 4.82864e-08)
(0.00107366 -1.23012e-06 1.77473e-07)
(0.00080257 -2.85452e-07 6.22245e-08)
(0.000803969 1.07939e-07 6.50986e-08)
(0.00107117 -7.2249e-07 1.61957e-07)
(0.000801261 2.72506e-08 6.42448e-08)
(0.000802365 -5.13138e-07 4.82895e-08)
(0.00106885 -1.07141e-07 1.8043e-07)
(0.000799942 2.28232e-07 6.17805e-08)
(0.000800825 -5.04401e-07 6.14458e-08)
(0.00106713 1.13393e-07 1.79808e-07)
(0.000798513 3.27621e-07 3.62893e-08)
(0.000799091 -4.89677e-07 7.36132e-08)
(0.00106528 4.19069e-07 1.76827e-07)
(0.000796873 2.58989e-07 5.83827e-08)
(0.000797482 3.15088e-07 3.75032e-08)
(0.00106322 3.88793e-07 1.7656e-07)
(0.000795385 1.46341e-07 7.67403e-08)
(0.000796108 -7.91458e-08 6.29773e-08)
(0.00106114 2.71636e-07 1.7627e-07)
(0.000793829 1.17278e-07 4.91123e-08)
(0.000794652 1.54811e-07 5.46441e-08)
(0.00105907 1.23263e-07 1.77441e-07)
(0.000792501 1.75945e-07 4.21224e-08)
(0.000793201 3.59721e-07 4.54755e-08)
(0.00105708 2.44083e-07 1.47429e-07)
(0.000791203 1.55157e-07 5.51081e-08)
(0.000791711 4.30846e-07 6.52967e-08)
(0.0010555 3.18896e-07 1.15438e-07)
(0.000789609 4.72294e-08 6.69966e-08)
(0.000790173 3.8978e-08 5.61424e-08)
(0.00105357 1.81723e-07 2.00817e-07)
(0.000787941 -5.18064e-08 5.39547e-08)
(0.000788616 2.7512e-08 5.61197e-08)
(0.00105127 1.23635e-08 2.18714e-07)
(0.000786266 -1.99578e-07 4.25186e-08)
(0.00078703 -6.43432e-08 4.55901e-08)
(0.00104902 -9.24649e-08 1.41878e-07)
(0.000784804 -6.43607e-07 5.95939e-08)
(0.000785331 -2.59034e-07 5.38927e-08)
(0.001047 -3.92819e-07 1.7866e-07)
(0.000783323 -8.8733e-07 -2.31347e-08)
(0.000783815 9.88004e-07 1.1647e-08)
(0.00104507 -1.29246e-06 1.90211e-07)
(0.000780885 -6.69505e-07 5.67483e-09)
(0.000782288 1.28329e-06 -3.54762e-08)
(0.00104234 -1.028e-06 1.70772e-07)
(0.000780103 -4.25277e-07 8.81373e-08)
(0.000780931 -2.37873e-07 1.0879e-07)
(0.00104033 -7.04904e-07 2.56663e-07)
(0.000778853 8.70127e-09 1.32095e-07)
(0.000779876 -2.19238e-07 5.60294e-08)
(0.00103905 -3.96674e-07 2.27156e-07)
(0.000777485 4.23128e-07 2.13711e-07)
(0.000778471 5.64268e-07 2.60838e-07)
(0.00103726 4.86605e-07 1.3475e-07)
(0.000776097 3.48524e-07 1.3187e-07)
(0.00077669 8.58003e-07 1.70519e-07)
(0.00103549 7.29054e-07 1.09715e-07)
(0.000774426 8.1072e-08 6.33326e-08)
(0.000774995 2.38675e-07 6.88185e-08)
(0.00103341 2.42018e-07 1.72303e-07)
(0.000772821 -3.21054e-08 5.7119e-08)
(0.000773525 -7.61963e-08 6.20405e-08)
(0.00103116 -4.01789e-09 1.82102e-07)
(0.000771333 6.6648e-08 4.65551e-08)
(0.000772017 1.19248e-07 4.96056e-08)
(0.00102912 -4.06495e-08 1.68624e-07)
(0.000769725 2.88645e-07 3.54929e-08)
(0.000770546 1.63589e-07 5.08677e-08)
(0.0010272 2.77147e-07 1.80549e-07)
(0.000768254 4.72951e-07 4.18931e-08)
(0.000769053 4.32384e-07 3.17142e-08)
(0.00102506 5.72233e-07 1.6301e-07)
(0.000766392 3.88065e-07 4.84287e-08)
(0.000767284 -7.43122e-07 5.13103e-08)
(0.00102275 7.39385e-07 1.91712e-07)
(0.000765048 1.37621e-07 4.77463e-08)
(0.000765675 1.47211e-08 4.74851e-08)
(0.00102072 2.79632e-07 1.75307e-07)
(0.000763593 -1.02049e-07 6.31266e-08)
(0.000764236 1.16761e-07 5.88613e-08)
(0.0010188 4.06253e-08 1.68973e-07)
(0.000762276 -3.24825e-07 1.0108e-07)
(0.000762889 1.07706e-07 9.98926e-08)
(0.00101691 -3.39247e-07 2.08972e-07)
(0.000760982 -2.58615e-07 9.76454e-08)
(0.000761793 -1.61194e-07 1.19451e-07)
(0.00101537 -5.59939e-07 1.39912e-07)
(0.000759583 -1.15271e-07 5.55235e-08)
(0.000760397 -4.13245e-08 7.14899e-08)
(0.00101352 -1.78785e-07 1.71851e-07)
(0.000758057 -1.59405e-08 6.11804e-08)
(0.000758905 6.57792e-08 5.51259e-08)
(0.00101157 -1.65824e-07 1.73434e-07)
(0.000756764 -2.73886e-08 5.28208e-08)
(0.000757402 3.70284e-07 6.14298e-08)
(0.00100974 1.1846e-07 1.22431e-07)
(0.000755301 -2.43662e-07 6.24106e-08)
(0.000755831 -3.7131e-07 4.81295e-08)
(0.00100784 -1.5837e-07 1.74095e-07)
(0.000753717 -2.98725e-07 5.62885e-08)
(0.000754391 4.32617e-07 7.19021e-08)
(0.00100572 -4.62139e-07 2.49526e-07)
(0.000753442 8.12683e-08 5.30756e-08)
(0.00100437 -3.1898e-07 8.02683e-08)
(0.00553144 0.0136213 0.00222277)
(0.00494999 -0.0215188 0.000133951)
(0.010393 -0.0338878 7.78844e-05)
(0.0152114 -0.0171969 0.00277575)
(0.0207886 0.00462155 0.00766827)
(0.00797429 0.00835281 -0.00032206)
(0.0358862 0.0126694 -0.00402976)
(0.00769159 -0.0144448 -0.00234525)
(0.0473913 0.00705759 -0.0972467)
(0.0465514 0.0114771 0.0400834)
(0.0465215 0.0237147 0.0165338)
(-0.0154614 0.0287089 0.0397374)
(0.0394999 0.0122549 -0.00668456)
(0.00430735 0.00214543 -0.00723851)
(0.00687518 0.0381641 -0.0115694)
(-0.0351836 -0.0116274 0.00493766)
(-0.0281607 -0.0135313 -0.00195685)
(-0.0250568 -0.0389296 -0.000365206)
(-0.0393117 0.00160479 -0.000466969)
(-0.0577075 -0.0192199 0.000380215)
(0.0201824 -0.00638759 0.00101332)
(0.0221523 -0.0118828 -0.00101586)
(0.0690671 -0.00230372 -0.0024753)
(0.0162952 -0.00386954 0.000776269)
(0.0183588 -0.00689043 -0.000873178)
(0.0167034 0.00275322 0.00329987)
(0.0157477 -0.00713923 0.00129299)
(0.059853 -0.0173669 -0.063411)
(0.024945 -0.0283178 0.00869333)
(0.0221487 -0.0256537 0.0287701)
(0.0138274 -0.00883482 0.0449547)
(-0.0277068 -0.0345875 0.00135261)
(-0.00799527 -0.027783 0.00163793)
(-0.0531585 -0.0322144 2.00254e-05)
(-0.0256948 -0.0358273 0.000663062)
(-0.0316091 -0.0356624 0.00387675)
(0.00135128 -0.00153129 -0.000349328)
(0.00197448 0.00298639 0.000232191)
(0.00463738 -0.00535124 -0.000370415)
(0.00420748 -0.00181506 -0.000368927)
(0.00872367 -0.00467952 -0.000204874)
(0.00142373 0.00029684 7.20595e-05)
(0.0018343 0.000510968 8.11727e-05)
(0.00183272 0.000402923 0.000135701)
(0.00188448 0.00109154 2.02425e-05)
(0.00127077 0.000233204 8.31039e-05)
(0.000320994 -2.76844e-05 -2.32069e-06)
(0.000492781 -3.23485e-05 -3.43645e-06)
(0.000472613 -4.10656e-05 -1.94572e-07)
(0.000775532 -6.63237e-05 -1.65715e-06)
(0.000337677 -3.58957e-05 -1.11148e-06)
(0.000592692 -5.25602e-05 7.29567e-07)
(0.000638706 -7.13069e-05 3.63791e-06)
(0.000463788 -4.059e-05 -5.3175e-07)
(0.000825385 -1.4625e-05 -1.29185e-06)
(0.000887617 -1.19025e-05 -2.00246e-06)
(0.00119044 -2.47853e-05 -1.05349e-06)
(0.000610662 -2.27518e-05 -3.92823e-06)
(0.000617306 -1.11446e-05 -5.29151e-06)
(0.0010141 -4.29454e-05 -4.71273e-06)
(0.00102834 -1.37723e-05 -6.41622e-06)
(0.000819296 -7.16088e-06 -2.37216e-07)
(0.000813133 -4.48344e-06 -5.06969e-07)
(0.00108048 -1.13081e-05 4.21947e-08)
(0.000814596 -3.87997e-06 1.18607e-07)
(0.000819978 -2.59906e-06 1.38947e-07)
(0.00109269 -6.062e-06 2.02254e-07)
(0.000811508 -2.18754e-06 6.00353e-08)
(0.000812983 -1.38947e-06 4.25201e-08)
(0.00108336 -3.24607e-06 1.67087e-07)
(0.000809219 -1.30641e-06 4.23001e-08)
(0.000810561 -7.7568e-07 4.36049e-08)
(0.00108051 -1.95534e-06 1.48665e-07)
(0.000806978 -7.72549e-07 4.82115e-08)
(0.000808114 -4.50514e-07 4.62064e-08)
(0.00107726 -1.14721e-06 1.7779e-07)
(0.000805026 -5.08089e-07 5.42789e-08)
(0.000805985 -2.44855e-07 4.74331e-08)
(0.00107429 -6.80008e-07 1.78271e-07)
(0.00080372 -2.95245e-07 5.1169e-08)
(0.000804236 -2.54811e-07 5.09891e-08)
(0.00107218 -5.23971e-07 1.86337e-07)
(0.000801967 -9.82976e-08 4.54862e-08)
(0.000802611 -9.75749e-08 4.64478e-08)
(0.00107014 -1.7389e-07 1.71162e-07)
(0.000800076 -7.2393e-08 7.32746e-08)
(0.000800858 2.05499e-07 6.92514e-08)
(0.0010677 -4.64618e-08 1.62457e-07)
(0.0007979 -3.17028e-08 7.48388e-08)
(0.000799142 4.71245e-07 7.09509e-08)
(0.00106491 -1.3917e-07 1.69561e-07)
(0.000796754 7.70738e-08 4.20896e-08)
(0.000797618 -1.38695e-07 3.80208e-08)
(0.00106267 3.2445e-08 1.78065e-07)
(0.000795378 1.2207e-07 4.08837e-08)
(0.000796164 -2.69915e-07 5.44521e-08)
(0.00106108 1.41125e-07 1.79406e-07)
(0.000794 1.99601e-07 5.10102e-08)
(0.000794748 -1.4674e-08 4.82052e-08)
(0.00105926 1.58278e-07 1.77852e-07)
(0.000792477 2.52441e-07 6.86435e-08)
(0.000793266 -2.37181e-08 4.02614e-08)
(0.00105736 3.67263e-07 2.04993e-07)
(0.000790623 1.4472e-07 6.63339e-08)
(0.000791576 3.91816e-08 7.07952e-08)
(0.00105498 3.22906e-07 2.33901e-07)
(0.000789204 4.13545e-08 4.52655e-08)
(0.000790043 3.02897e-08 5.20771e-08)
(0.00105279 5.69865e-08 1.68853e-07)
(0.00078772 -5.19889e-08 4.77583e-08)
(0.000788499 -7.40123e-08 3.58281e-08)
(0.00105089 3.56153e-08 1.80517e-07)
(0.00078617 -1.25471e-07 5.69616e-08)
(0.000786939 4.95549e-08 5.87179e-08)
(0.00104891 -1.49182e-07 1.70761e-07)
(0.000784192 -1.37342e-07 5.95915e-09)
(0.000785316 -9.97379e-08 7.06991e-08)
(0.00104642 -1.28194e-07 2.04761e-07)
(0.000782946 -2.00227e-08 -6.79642e-10)
(0.000783961 -7.33039e-07 -1.42221e-08)
(0.00104434 -1.74042e-07 2.72377e-07)
(0.000782054 3.63752e-07 6.75939e-08)
(0.000782767 -8.29163e-07 3.89312e-08)
(0.00104309 2.20313e-07 2.68668e-07)
(0.000780837 6.13138e-07 7.66988e-08)
(0.00078124 -1.04508e-06 7.59311e-08)
(0.00104151 8.43736e-07 2.05037e-07)
(0.000779514 5.08676e-07 1.84708e-07)
(0.000779743 -1.98976e-06 2.12825e-08)
(0.00104 8.26422e-07 2.82532e-07)
(0.000777798 3.76553e-07 2.17674e-07)
(0.000778304 4.08631e-07 1.76533e-07)
(0.00103807 5.4113e-07 2.02769e-07)
(0.000775458 2.42347e-07 1.075e-07)
(0.000776521 5.74358e-08 8.8231e-08)
(0.00103505 4.51787e-07 3.04137e-07)
(0.000774105 1.2244e-07 6.75284e-08)
(0.000774845 8.75644e-08 4.61869e-08)
(0.00103264 1.61952e-07 1.70061e-07)
(0.000772734 1.02557e-07 5.45309e-08)
(0.0007735 -7.71209e-08 6.46141e-08)
(0.001031 1.19894e-07 1.61135e-07)
(0.000771211 9.07466e-08 5.39178e-08)
(0.000772002 7.81505e-08 4.69344e-08)
(0.00102904 1.21613e-07 1.77726e-07)
(0.000769815 6.6994e-08 4.7095e-08)
(0.000770516 2.77771e-08 4.53344e-08)
(0.00102709 1.02351e-07 1.73423e-07)
(0.000768282 -1.25218e-08 4.11254e-08)
(0.000768953 5.52921e-07 2.87888e-08)
(0.0010252 4.15614e-08 1.67445e-07)
(0.000766346 1.51656e-08 5.0368e-08)
(0.000767319 -4.37109e-07 3.12919e-08)
(0.00102277 -9.50801e-08 1.90754e-07)
(0.000764991 1.38323e-07 5.85966e-08)
(0.000765828 -3.55495e-08 1.28678e-08)
(0.00102053 1.22133e-07 1.64521e-07)
(0.000763388 2.38471e-07 9.56147e-08)
(0.00076436 1.91212e-07 4.56899e-08)
(0.00101865 2.24488e-07 1.78236e-07)
(0.000762424 2.92862e-07 1.18257e-07)
(0.000762956 6.07086e-07 1.45003e-07)
(0.001017 4.48529e-07 9.02492e-08)
(0.000761302 2.6426e-07 9.331e-08)
(0.000761755 -1.50676e-06 3.49111e-08)
(0.00101564 4.23164e-07 2.38657e-07)
(0.000759702 2.46816e-07 7.10973e-08)
(0.000760373 -5.41422e-08 5.75841e-08)
(0.00101379 3.92815e-07 1.85855e-07)
(0.000758212 3.02834e-07 5.53733e-08)
(0.000758973 -4.46132e-08 4.6741e-08)
(0.00101183 3.71051e-07 1.83514e-07)
(0.000756471 2.63575e-07 5.67425e-08)
(0.000757351 2.44572e-07 7.21564e-08)
(0.00100965 4.8937e-07 2.08121e-07)
(0.000754904 1.26112e-07 5.76138e-08)
(0.000755658 -4.28715e-08 4.95211e-08)
(0.00100731 2.53995e-07 1.59523e-07)
(0.000753918 7.98814e-08 6.8695e-08)
(0.000754331 -1.99721e-07 5.08192e-08)
(0.00100556 1.24054e-07 1.77418e-07)
(0.000753342 1.29806e-07 6.28978e-08)
(0.00100437 1.02306e-07 1.56353e-07)
(0.00848464 0.0117241 -0.000195063)
(-0.00404049 6.64933e-06 0.000410108)
(-0.00252891 0.000207332 0.000680868)
(0.00112312 0.00940706 0.00114339)
(-0.00701873 0.00381075 -0.00115065)
(-0.00180756 0.000220052 -0.000444188)
(0.00633563 0.00546236 0.0010139)
(-0.0115104 0.00789912 0.000239939)
(-0.00102828 -0.00164129 -0.000797008)
(-0.00854331 -0.0138852 -0.00160117)
(0.001551 -0.0196622 -0.000874852)
(0.000823062 -0.0315292 -0.00250854)
(0.00892559 -0.0102768 -0.00115332)
(0.00266893 -0.00402616 -0.00105015)
(-0.00806865 0.00712087 -0.000713041)
(0.00705581 0.00673177 -0.00164443)
(-0.00700464 0.0065477 0.000561373)
(0.00766597 -0.0087091 0.000396908)
(0.0135568 -0.0102125 0.00160839)
(-0.00687466 0.0151756 -0.000145262)
(0.0133688 0.0105067 0.000788978)
(0.000789561 0.00656403 0.000596304)
(0.00320042 0.0132466 -0.000789589)
(-0.010231 0.0164906 -0.000529711)
(0.000367444 0.0133093 -0.00015623)
(-0.0117527 0.01363 0.000200211)
(-0.0117023 0.0141349 -0.000264639)
(-0.00410067 0.00530316 -1.86334e-05)
(-0.0252012 0.0289916 -0.000802061)
(-0.00926278 0.0249793 -0.000975153)
(-0.00809167 -0.0129366 -0.000256385)
(0.00113903 -0.00115503 -0.000551873)
(0.00309791 -0.00313228 -0.000401723)
(0.0103409 0.00596998 -0.000958945)
(0.0102463 -0.00226565 -0.00143782)
(0.000458863 0.000740307 -4.32383e-06)
(0.000557954 0.000756151 2.83261e-06)
(0.000187491 0.000602909 -7.20347e-06)
(0.000573732 0.00108818 -1.08572e-05)
(0.000710411 0.000406742 4.68735e-05)
(0.000350777 -8.33782e-05 2.25851e-05)
(0.000366004 -2.82753e-05 2.2223e-06)
(0.000337501 -2.60078e-05 4.20785e-06)
(0.000534053 -4.0391e-05 7.72624e-06)
(0.00025763 -2.43032e-05 -6.14916e-07)
(0.000831009 2.69434e-06 -1.21807e-06)
(0.000886285 1.57534e-05 -1.5692e-06)
(0.00118002 7.76177e-06 -1.316e-06)
(0.000626994 -2.58424e-06 -4.49892e-06)
(0.000620315 3.5578e-07 -5.41266e-06)
(0.00106095 -3.48224e-06 -5.22296e-06)
(0.00103931 3.44586e-06 -6.24158e-06)
(0.000822631 1.24148e-06 -1.31017e-07)
(0.000811237 5.73239e-06 -4.79493e-07)
(0.00108963 3.93037e-06 7.22157e-08)
(0.000816279 7.22124e-07 6.28919e-08)
(0.000819297 3.29087e-06 1.50006e-07)
(0.00109459 2.15495e-06 1.96392e-07)
(0.000812258 4.19562e-07 2.60894e-08)
(0.000812585 1.82159e-06 4.03362e-09)
(0.00108475 1.48198e-06 1.78342e-07)
(0.0008094 1.87231e-07 4.75104e-08)
(0.000810259 9.26789e-07 1.01374e-07)
(0.00108079 6.91715e-07 1.79922e-07)
(0.000807108 2.00517e-07 4.54277e-08)
(0.000808123 5.50389e-07 4.77772e-08)
(0.0010773 4.6016e-07 1.78153e-07)
(0.000805089 2.41656e-07 4.41421e-08)
(0.000806031 4.1878e-07 2.76927e-08)
(0.00107444 4.90388e-07 1.77309e-07)
(0.000803208 6.1892e-08 4.62693e-08)
(0.000804008 2.94158e-07 4.09785e-08)
(0.0010718 4.24248e-07 1.73216e-07)
(0.000801509 -1.78021e-07 7.02057e-08)
(0.00080231 1.05239e-07 4.88249e-08)
(0.00106945 -8.17564e-08 1.81086e-07)
(0.000799934 -2.92763e-07 6.69271e-08)
(0.000800714 1.51842e-07 7.03924e-08)
(0.00106717 -2.61708e-07 1.87948e-07)
(0.000798772 -2.54235e-07 3.41435e-08)
(0.000799191 3.41114e-07 5.13145e-08)
(0.00106538 -4.31902e-07 1.57363e-07)
(0.000797075 -1.43249e-07 5.0378e-08)
(0.000797757 9.10768e-08 6.19199e-08)
(0.00106357 -2.34303e-07 1.78469e-07)
(0.000795467 -1.33519e-07 6.17756e-08)
(0.000796177 -9.12372e-08 6.96794e-08)
(0.0010613 -1.64838e-07 1.73938e-07)
(0.000794081 -1.65032e-07 3.74589e-08)
(0.00079471 -1.26518e-07 3.54426e-08)
(0.00105935 -1.98256e-07 1.7446e-07)
(0.000792364 -1.50707e-07 4.24033e-08)
(0.000793285 8.22037e-07 6.18508e-08)
(0.00105728 -2.67164e-07 1.36291e-07)
(0.00079097 -2.451e-08 5.65444e-08)
(0.000791734 -1.12804e-08 7.66533e-08)
(0.00105511 -1.7502e-07 1.69985e-07)
(0.000789371 1.01529e-07 4.26449e-08)
(0.000790201 -1.66083e-09 5.86986e-08)
(0.00105321 6.12384e-08 1.8616e-07)
(0.000787657 1.97267e-07 4.67803e-08)
(0.000788619 -1.94893e-07 4.11649e-08)
(0.00105101 1.63005e-07 2.02095e-07)
(0.000786198 2.98693e-07 7.24516e-08)
(0.000787064 -6.69451e-08 6.50703e-08)
(0.00104881 3.4893e-07 1.78917e-07)
(0.000784905 5.99419e-07 5.05446e-08)
(0.00078569 -5.32578e-07 4.4361e-08)
(0.00104697 4.89149e-07 1.86145e-07)
(0.000783826 8.41008e-07 2.5372e-08)
(0.00078426 -2.3898e-06 7.23928e-09)
(0.00104551 1.1937e-06 2.53335e-07)
(0.000782013 8.12235e-07 4.72568e-08)
(0.000782727 3.32171e-07 2.56555e-08)
(0.00104361 1.10922e-06 1.18824e-07)
(0.000780166 7.66347e-07 2.05319e-08)
(0.000781178 -3.0661e-07 5.55018e-08)
(0.00104108 1.08153e-06 1.5135e-07)
(0.000778442 4.62365e-07 1.30594e-08)
(0.00077936 2.45295e-07 6.38804e-09)
(0.00103867 1.00529e-06 3.41022e-08)
(0.000777232 5.05671e-08 4.71173e-08)
(0.000777788 -7.72286e-08 2.01918e-07)
(0.00103678 2.76968e-07 1.81242e-07)
(0.000775707 4.30604e-09 2.69314e-08)
(0.000776462 1.22429e-07 5.06465e-08)
(0.00103501 -1.15587e-07 1.70097e-07)
(0.000774291 9.64875e-08 4.32668e-08)
(0.000774959 5.23041e-08 3.14017e-08)
(0.001033 1.40864e-07 1.67561e-07)
(0.000772759 8.50372e-08 5.70231e-08)
(0.000773485 -7.80942e-08 6.29427e-08)
(0.00103111 1.17099e-07 1.75426e-07)
(0.00077129 8.33721e-08 3.83514e-08)
(0.000772 3.11845e-08 3.37809e-08)
(0.0010291 8.95617e-08 1.7334e-07)
(0.000769692 -1.04186e-07 2.70333e-08)
(0.000770282 2.95145e-07 5.21112e-08)
(0.0010271 8.57137e-08 1.62557e-07)
(0.000767954 -3.0117e-07 1.89546e-08)
(0.000768708 1.79721e-06 5.5497e-08)
(0.00102481 -4.12249e-07 1.0522e-07)
(0.000766805 -1.79911e-07 -6.20256e-09)
(0.000767472 -2.70064e-07 5.61823e-08)
(0.00102285 -4.30775e-07 1.29986e-07)
(0.000765268 -3.55121e-09 -4.90093e-11)
(0.000766049 -1.37865e-08 4.37975e-09)
(0.00102112 -6.78043e-08 1.7581e-07)
(0.000763784 1.80621e-07 9.50477e-08)
(0.000764589 1.6792e-07 2.27701e-07)
(0.0010192 1.04348e-07 1.74524e-07)
(0.000762275 3.50373e-07 6.16906e-08)
(0.000763166 -1.76209e-06 7.252e-08)
(0.00101716 4.56732e-07 3.47045e-07)
(0.0007609 2.22427e-07 -8.21745e-10)
(0.000761593 4.62736e-07 2.764e-08)
(0.0010153 5.3165e-07 2.13887e-08)
(0.000759596 3.3253e-08 3.32312e-08)
(0.000760135 1.06163e-07 8.90733e-08)
(0.00101345 9.79441e-08 1.46335e-07)
(0.000758309 -4.00758e-08 6.35163e-08)
(0.000758881 -3.0248e-08 4.33841e-08)
(0.00101168 2.3289e-08 1.56034e-07)
(0.000756279 -6.91993e-09 6.49419e-08)
(0.000757392 -5.31102e-07 2.05124e-08)
(0.00100958 -1.13888e-07 2.81763e-07)
(0.000755154 1.75819e-07 4.27261e-08)
(0.000755887 -3.15821e-07 -9.98537e-08)
(0.00100738 9.51584e-08 1.63107e-07)
(0.000753602 2.51771e-07 4.50184e-08)
(0.000754423 4.22629e-08 9.7558e-08)
(0.00100553 3.60761e-07 1.65227e-07)
(0.000753029 3.6001e-07 7.08128e-08)
(0.00100409 3.06199e-07 1.19603e-07)
(-0.00678238 -0.00298205 0.00351818)
(0.0159218 -0.00463511 -0.00110983)
(0.000830201 -0.00586639 -0.00201873)
(-0.0010255 -0.00690738 -0.000450404)
(0.00939809 -0.000726882 -0.00345132)
(-0.00243261 0.00349635 -0.00160861)
(-0.0105659 0.00897515 0.00397464)
(0.00904575 -0.00765718 7.0695e-05)
(0.000905813 0.006105 0.0109831)
(-0.00113964 0.00142502 0.00258749)
(0.0025793 -0.0133872 0.000960493)
(0.00664495 0.00145054 -0.00055951)
(-0.00342148 0.00088159 0.000284819)
(-0.000135483 0.00725303 -0.000521138)
(-0.00163454 -0.00166748 -0.00179872)
(0.000327875 0.00558313 0.00212794)
(0.00386804 0.00251101 0.00170563)
(-0.00654195 -0.0062135 0.00210435)
(0.005588 0.000174675 -0.000263494)
(-0.0065498 0.00313696 0.0027238)
(0.013115 -0.000382215 -0.00191703)
(0.00966891 0.0140513 -0.00197992)
(0.00376709 0.00269681 -0.00205648)
(0.00848895 0.00816842 -0.00284848)
(-0.000838565 0.00774472 -0.00292791)
(0.0114556 0.0259261 0.0164996)
(0.00278755 0.00629209 0.00918638)
(0.0122976 0.020746 -0.0273512)
(0.0047328 0.00117295 0.000399525)
(0.00886034 -0.00545249 0.000390027)
(0.0074711 -0.0101803 0.000758693)
(0.0144973 -0.00848135 0.000416686)
(0.00745611 -0.00634659 0.000251127)
(0.00958778 -0.0111493 -0.00136925)
(0.0223352 -0.00964269 -0.00140572)
(-0.00355396 3.55701e-05 -0.0014688)
(0.007713 0.0119125 -0.00198289)
(-3.25296e-05 0.00188207 -0.00125328)
(0.00614782 0.00516594 -0.00155992)
(0.00516721 0.000690792 -0.00157292)
(0.00972764 0.000952585 -0.00903259)
(0.013072 -0.00585155 -0.0301056)
(0.0162784 -0.0101948 0.0496579)
(0.0108882 -0.000956059 -0.02354)
(-0.00544218 0.00337989 -0.000217495)
(0.00245572 -0.00159549 0.000281992)
(-0.000299071 0.000860349 9.39386e-05)
(0.00019572 0.000591566 0.000196934)
(-0.00118192 0.00166839 0.000419551)
(0.000839605 -5.67225e-05 -1.75948e-05)
(0.000268204 0.000616749 -8.58512e-05)
(0.000656426 4.46182e-05 7.88682e-06)
(0.000164073 -0.000115713 -9.00622e-06)
(-0.000332642 9.5193e-05 2.3091e-05)
(0.000456606 -4.54157e-05 -4.47538e-05)
(-0.000480599 -0.000248242 7.38563e-05)
(0.000655279 0.00103354 5.53812e-05)
(0.000772894 0.000441577 -1.38413e-05)
(0.00105064 0.000299092 -3.54578e-05)
(0.000591119 0.000116655 -3.43831e-05)
(0.000625623 0.000368063 8.46606e-05)
(0.000850986 0.000548737 -3.23474e-05)
(0.00061207 0.000189287 7.94174e-05)
(0.00106871 -3.92048e-06 1.94614e-05)
(0.000468011 -1.41109e-05 3.07493e-05)
(0.000484902 -1.54749e-05 3.6181e-05)
(0.000632791 -1.09214e-05 6.50617e-05)
(0.000299838 -7.979e-06 1.62223e-05)
(0.000820114 1.43918e-05 -8.3098e-07)
(0.000877618 1.55843e-05 -1.09364e-06)
(0.00118268 2.93307e-05 -1.00768e-06)
(0.000612366 1.0573e-05 -4.76532e-06)
(0.000608476 1.41589e-05 -5.40201e-06)
(0.00100913 1.84405e-05 -5.14915e-06)
(0.000999254 2.61937e-05 -5.30801e-06)
(0.000816749 6.77842e-06 -1.98677e-07)
(0.000801582 1.00499e-05 -5.23763e-07)
(0.00107323 1.30405e-05 4.70775e-08)
(0.000813568 3.76608e-06 9.11948e-08)
(0.000815482 5.07767e-06 1.8383e-07)
(0.00108953 7.66854e-06 2.05634e-07)
(0.000810647 2.12255e-06 7.92866e-08)
(0.0008105 3.55488e-06 1.46455e-08)
(0.00108147 4.06079e-06 1.84097e-07)